ITEM: TIMESTEP
5
ITEM: NUMBER OF ATOMS
2
ITEM: BOX BOUNDS xy xz yz pp pp pp
0.0000000000000000e+00 2.0000000000000000e+01
0.0000000000000000e+00 3.0000000000000000e+01 -2.1999999999999989e+01
0.0000000000000000e+00 4.0000000000000000e+01 2.3224143638648190e+01
ITEM: ATOMS id type x y z
1 1 5 5 5
2 5 6.5 6.5 6.5
ITEM: TIMESTEP
6
ITEM: NUMBER OF ATOMS
2
ITEM: BOX BOUNDS xy xz yz pp pp pp
0.0000000000000000e+00 2.0000000000000000e+01 -1.0999999999999995e+01
0.0000000000000000e+00 3.0000000000000000e+01
0.0000000000000000e+00 4.0000000000000000e+01 2.3224143638648190e+01
ITEM: ATOMS id type x y z
1 1 5 5 5
2 5 6.5 6.5 6.5
ITEM: TIMESTEP
7
ITEM: NUMBER OF ATOMS
2
ITEM: BOX BOUNDS xy xz yz pp pp pp
0.0000000000000000e+00 2.0000000000000000e+01 -1.0999999999999995e+01
0.0000000000000000e+00 3.0000000000000000e+01 -2.1999999999999989e+01
0.0000000000000000e+00 4.0000000000000000e+01
ITEM: ATOMS id type x y z
1 1 5 5 5
2 5 6.5 6.5 6.5
