ITEM: TIMESTEP
2
ITEM: NUMBER OF ATOMS
2
ITEM: BOX BOUNDS pp pp pp
DUMMY
0.0000000000000000e+00 3.0000000000000000e+01
0.0000000000000000e+00 4.0000000000000000e+01
ITEM: ATOMS id type x y z
1 1 5 5 5
2 5 6.5 6.5 6.5
ITEM: TIMESTEP
3
ITEM: NUMBER OF ATOMS
2
ITEM: BOX BOUNDS pp pp pp
0.0000000000000000e+00 2.0000000000000000e+01
DUMMY
0.0000000000000000e+00 4.0000000000000000e+01
ITEM: ATOMS id type x y z
1 1 5 5 5
2 5 6.5 6.5 6.5
ITEM: TIMESTEP
4
ITEM: NUMBER OF ATOMS
2
ITEM: BOX BOUNDS pp pp pp
0.0000000000000000e+00 2.0000000000000000e+01
0.0000000000000000e+00 3.0000000000000000e+01
DUMMY
ITEM: ATOMS id type x y z
1 1 5 5 5
2 5 6.5 6.5 6.5
