ITEM: TIMESTEP
0
ITEM: NUMBER OF ATOMS
2
DUMMY
0.0000000000000000e+00 2.0000000000000000e+01
0.0000000000000000e+00 3.0000000000000000e+01
0.0000000000000000e+00 4.0000000000000000e+01
ITEM: ATOMS id type x y z
1 1 5 5 5
2 5 6.5 6.5 6.5
ITEM: TIMESTEP
1
ITEM: NUMBER OF ATOMS
2
ITEM: DUMMY
0.0000000000000000e+00 2.0000000000000000e+01
0.0000000000000000e+00 3.0000000000000000e+01
0.0000000000000000e+00 4.0000000000000000e+01
ITEM: ATOMS id type x y z
1 1 5 5 5
2 5 6.5 6.5 6.5
ITEM: TIMESTEP
2
ITEM: NUMBER OF ATOMS
2
ITEM: BOX BOUNDS pp pp pp
DUMMY
0.0000000000000000e+00 3.0000000000000000e+01
0.0000000000000000e+00 4.0000000000000000e+01
ITEM: ATOMS id type x y z
1 1 5 5 5
2 5 6.5 6.5 6.5
ITEM: TIMESTEP
3
ITEM: NUMBER OF ATOMS
2
ITEM: BOX BOUNDS pp pp pp
0.0000000000000000e+00 2.0000000000000000e+01
DUMMY
0.0000000000000000e+00 4.0000000000000000e+01
ITEM: ATOMS id type x y z
1 1 5 5 5
2 5 6.5 6.5 6.5
ITEM: TIMESTEP
4
ITEM: NUMBER OF ATOMS
2
ITEM: BOX BOUNDS pp pp pp
0.0000000000000000e+00 2.0000000000000000e+01
0.0000000000000000e+00 3.0000000000000000e+01
DUMMY
ITEM: ATOMS id type x y z
1 1 5 5 5
2 5 6.5 6.5 6.5
ITEM: TIMESTEP
5
ITEM: NUMBER OF ATOMS
2
ITEM: BOX BOUNDS xy xz yz pp pp pp
0.0000000000000000e+00 2.0000000000000000e+01
0.0000000000000000e+00 3.0000000000000000e+01 -2.1999999999999989e+01
0.0000000000000000e+00 4.0000000000000000e+01 2.3224143638648190e+01
ITEM: ATOMS id type x y z
1 1 5 5 5
2 5 6.5 6.5 6.5
ITEM: TIMESTEP
6
ITEM: NUMBER OF ATOMS
2
ITEM: BOX BOUNDS xy xz yz pp pp pp
0.0000000000000000e+00 2.0000000000000000e+01 -1.0999999999999995e+01
0.0000000000000000e+00 3.0000000000000000e+01
0.0000000000000000e+00 4.0000000000000000e+01 2.3224143638648190e+01
ITEM: ATOMS id type x y z
1 1 5 5 5
2 5 6.5 6.5 6.5
ITEM: TIMESTEP
7
ITEM: NUMBER OF ATOMS
2
ITEM: BOX BOUNDS xy xz yz pp pp pp
0.0000000000000000e+00 2.0000000000000000e+01 -1.0999999999999995e+01
0.0000000000000000e+00 3.0000000000000000e+01 -2.1999999999999989e+01
0.0000000000000000e+00 4.0000000000000000e+01
ITEM: ATOMS id type x y z
1 1 5 5 5
2 5 6.5 6.5 6.5
DUMMY
8
ITEM: NUMBER OF ATOMS
2
ITEM: BOX BOUNDS pp pp pp
0.0000000000000000e+00 2.0000000000000000e+01
0.0000000000000000e+00 3.0000000000000000e+01
0.0000000000000000e+00 4.0000000000000000e+01
ITEM: ATOMS id type x y z
1 1 5 5 5
2 5 6.5 6.5 6.5
ITEM: UNITS
lj
DUMMY
9
ITEM: NUMBER OF ATOMS
2
ITEM: BOX BOUNDS pp pp pp
0.0000000000000000e+00 2.0000000000000000e+01
0.0000000000000000e+00 3.0000000000000000e+01
0.0000000000000000e+00 4.0000000000000000e+01
ITEM: ATOMS id type x y z
1 1 5 5 5
2 5 6.5 6.5 6.5
ITEM: UNITS
lj
ITEM: TIME
250
DUMMY
10
ITEM: NUMBER OF ATOMS
2
ITEM: BOX BOUNDS pp pp pp
0.0000000000000000e+00 2.0000000000000000e+01
0.0000000000000000e+00 3.0000000000000000e+01
0.0000000000000000e+00 4.0000000000000000e+01
ITEM: ATOMS id type x y z
1 1 5 5 5
2 5 6.5 6.5 6.5
ITEM: DUMMY
11
ITEM: NUMBER OF ATOMS
2
ITEM: BOX BOUNDS pp pp pp
0.0000000000000000e+00 2.0000000000000000e+01
0.0000000000000000e+00 3.0000000000000000e+01
0.0000000000000000e+00 4.0000000000000000e+01
ITEM: ATOMS id type x y z
1 1 5 5 5
2 5 6.5 6.5 6.5
ITEM: TIMESTEP
12
ITEM: NUMBER OF ATOMS
2
ITEM: BOX BOUNDS pp pp pp
0.0000000000000000e+00 2.0000000000000000e+01
0.0000000000000000e+00 3.0000000000000000e+01
0.0000000000000000e+00 4.0000000000000000e+01
DUMMY
1 1 5 5 5
2 5 6.5 6.5 6.5
ITEM: TIMESTEP
13
ITEM: NUMBER OF ATOMS
2
ITEM: BOX BOUNDS pp pp pp
0.0000000000000000e+00 2.0000000000000000e+01
0.0000000000000000e+00 3.0000000000000000e+01
0.0000000000000000e+00 4.0000000000000000e+01
ITEM: DUMMY
1 1 5 5 5
2 5 6.5 6.5 6.5
ITEM: TIMESTEP
14
ITEM: NUMBER OF ATOMS
2
ITEM: BOX BOUNDS pp pp pp
0.0000000000000000e+00 2.0000000000000000e+01
0.0000000000000000e+00 3.0000000000000000e+01
0.0000000000000000e+00 4.0000000000000000e+01
ITEM: ATOMS id type x y z
1 1 5 5 5 X
2 5 6.5 6.5 6.5
ITEM: TIMESTEP
15
ITEM: NUMBER OF ATOMS
2
ITEM: BOX BOUNDS pp pp pp
0.0000000000000000e+00 2.0000000000000000e+01
0.0000000000000000e+00 3.0000000000000000e+01
0.0000000000000000e+00 4.0000000000000000e+01
ITEM: ATOMS id type x y z
2 1 5 5 5
2 5 6.5 6.5 6.5
