ITEM: TIME
25000000000
ITEM: TIMESTEP
100000
ITEM: NUMBER OF ATOMS
854
ITEM: BOX BOUNDS pp pp ff
1.0000000000000000e+01 7.0000000000000000e+01
-1.0500000000000000e+01 4.9500000000000000e+01
0.0000000000000000e+00 2.5000000000000000e+02
ITEM: ATOMS id ix iy iz x y z xs ys zs xsu ysu zsu xu yu zu
528 0 0 0 54 8.4 0 0.733333 0.315 0 0.733333 0.315 0 54 8.4 0
524 -1 0 0 63.6 10.8 0 0.893333 0.355 0 -0.106667 0.355 0 3.6 10.8 0
532 0 0 0 44.4 8.4 0 0.573333 0.315 0 0.573333 0.315 0 44.4 8.4 0
4 0 1 0 51.6 -1.2 0 0.693333 0.155 0 0.693333 1.155 0 51.6 58.8 0
536 0 0 0 34.8 8.4 0 0.413333 0.315 0 0.413333 0.315 0 34.8 8.4 0
540 0 0 0 25.2 8.4 0 0.253333 0.315 0 0.253333 0.315 0 25.2 8.4 0
520 0 0 0 13.2 10.8 0 0.0533333 0.355 0 0.0533333 0.355 0 13.2 10.8 0
8 0 1 0 42 -1.2 0 0.533333 0.155 0 0.533333 1.155 0 42 58.8 0
544 0 0 0 15.6 8.4 0 0.0933333 0.315 0 0.0933333 0.315 0 15.6 8.4 0
548 -1 0 0 66 8.4 0 0.933333 0.315 0 -0.0666667 0.315 0 6 8.4 0
552 0 0 0 56.4 6 0 0.773333 0.275 0 0.773333 0.275 0 56.4 6 0
12 0 1 0 32.4 -1.2 0 0.373333 0.155 0 0.373333 1.155 0 32.4 58.8 0
516 0 0 0 22.8 10.8 0 0.213333 0.355 0 0.213333 0.355 0 22.8 10.8 0
164 0 0 0 27.6 44.4 0 0.293333 0.915 0 0.293333 0.915 0 27.6 44.4 0
160 0 0 0 37.2 44.4 0 0.453333 0.915 0 0.453333 0.915 0 37.2 44.4 0
16 0 1 0 22.8 -1.2 0 0.213333 0.155 0 0.213333 1.155 0 22.8 58.8 0
156 0 0 0 46.8 44.4 0 0.613333 0.915 0 0.613333 0.915 0 46.8 44.4 0
152 0 0 0 56.4 44.4 0 0.773333 0.915 0 0.773333 0.915 0 56.4 44.4 0
148 -1 0 0 66 46.8 0 0.933333 0.955 0 -0.0666667 0.955 0 6 46.8 0
20 0 1 0 13.2 -1.2 0 0.0533333 0.155 0 0.0533333 1.155 0 13.2 58.8 0
144 0 0 0 15.6 46.8 0 0.0933333 0.955 0 0.0933333 0.955 0 15.6 46.8 0
140 0 0 0 25.2 46.8 0 0.253333 0.955 0 0.253333 0.955 0 25.2 46.8 0
136 0 0 0 34.8 46.8 0 0.413333 0.955 0 0.413333 0.955 0 34.8 46.8 0
24 -1 1 0 63.6 -1.2 0 0.893333 0.155 0 -0.106667 1.155 0 3.6 58.8 0
132 0 0 0 44.4 46.8 0 0.573333 0.955 0 0.573333 0.955 0 44.4 46.8 0
128 0 0 0 54 46.8 0 0.733333 0.955 0 0.733333 0.955 0 54 46.8 0
124 -1 0 0 63.6 49.2 0 0.893333 0.995 0 -0.106667 0.995 0 3.6 49.2 0
28 0 1 0 54 -3.6 0 0.733333 0.115 0 0.733333 1.115 0 54 56.4 0
120 0 0 0 13.2 49.2 0 0.0533333 0.995 0 0.0533333 0.995 0 13.2 49.2 0
116 0 0 0 22.8 49.2 0 0.213333 0.995 0 0.213333 0.995 0 22.8 49.2 0
112 0 0 0 32.4 49.2 0 0.373333 0.995 0 0.373333 0.995 0 32.4 49.2 0
32 0 1 0 44.4 -3.6 0 0.573333 0.115 0 0.573333 1.115 0 44.4 56.4 0
108 0 0 0 42 49.2 0 0.533333 0.995 0 0.533333 0.995 0 42 49.2 0
104 0 0 0 51.6 49.2 0 0.693333 0.995 0 0.693333 0.995 0 51.6 49.2 0
100 -1 1 0 61.2 -8.4 0 0.853333 0.035 0 -0.146667 1.035 0 1.2 51.6 0
36 0 1 0 34.8 -3.6 0 0.413333 0.115 0 0.413333 1.115 0 34.8 56.4 0
96 0 1 0 10.8 -8.4 0 0.0133333 0.035 0 0.0133333 1.035 0 10.8 51.6 0
92 0 1 0 20.4 -8.4 0 0.173333 0.035 0 0.173333 1.035 0 20.4 51.6 0
88 0 1 0 30 -8.4 0 0.333333 0.035 0 0.333333 1.035 0 30 51.6 0
40 0 1 0 25.2 -3.6 0 0.253333 0.115 0 0.253333 1.115 0 25.2 56.4 0
84 0 1 0 39.6 -8.4 0 0.493333 0.035 0 0.493333 1.035 0 39.6 51.6 0
80 0 1 0 49.2 -8.4 0 0.653333 0.035 0 0.653333 1.035 0 49.2 51.6 0
76 0 1 0 58.8 -8.4 0 0.813333 0.035 0 0.813333 1.035 0 58.8 51.6 0
44 0 1 0 15.6 -3.6 0 0.0933333 0.115 0 0.0933333 1.115 0 15.6 56.4 0
72 -1 1 0 68.4 -6 0 0.973333 0.075 0 -0.0266667 1.075 0 8.4 54 0
68 0 1 0 18 -6 0 0.133333 0.075 0 0.133333 1.075 0 18 54 0
64 0 1 0 27.6 -6 0 0.293333 0.075 0 0.293333 1.075 0 27.6 54 0
48 -1 1 0 66 -3.6 0 0.933333 0.115 0 -0.0666667 1.115 0 6 56.4 0
60 0 1 0 37.2 -6 0 0.453333 0.075 0 0.453333 1.075 0 37.2 54 0
56 0 1 0 46.8 -6 0 0.613333 0.075 0 0.613333 1.075 0 46.8 54 0
52 0 1 0 56.4 -6 0 0.773333 0.075 0 0.773333 1.075 0 56.4 54 0
556 0 0 0 46.8 6 0 0.613333 0.275 0 0.613333 0.275 0 46.8 6 0
560 0 0 0 37.2 6 0 0.453333 0.275 0 0.453333 0.275 0 37.2 6 0
168 0 0 0 18 44.4 0 0.133333 0.915 0 0.133333 0.915 0 18 44.4 0
564 0 0 0 27.6 6 0 0.293333 0.275 0 0.293333 0.275 0 27.6 6 0
512 0 0 0 32.4 10.8 0 0.373333 0.355 0 0.373333 0.355 0 32.4 10.8 0
680 -1 -1 0 61.4768 34.7114 2.38234 0.857946 0.753523 0.00952935 -0.142054 -0.246477 0.00952935 1.47679 -25.2886 2.38234
172 -1 0 0 68.4 44.4 0 0.973333 0.915 0 -0.0266667 0.915 0 8.4 44.4 0
568 0 0 0 18 6 0 0.133333 0.275 0 0.133333 0.275 0 18 6 0
672 0 0 0 54.0432 7.50542 2.22663 0.734053 0.30009 0.00890651 0.734053 0.30009 0.00890651 54.0432 7.50542 2.22663
572 -1 0 0 68.4 6 0 0.973333 0.275 0 -0.0266667 0.275 0 8.4 6 0
176 0 0 0 58.8 42 0 0.813333 0.875 0 0.813333 0.875 0 58.8 42 0
316 0 0 0 22.8 30 0 0.213333 0.675 0 0.213333 0.675 0 22.8 30 0
312 0 0 0 32.4 30 0 0.373333 0.675 0 0.373333 0.675 0 32.4 30 0
308 0 0 0 42 30 0 0.533333 0.675 0 0.533333 0.675 0 42 30 0
180 0 0 0 49.2 42 0 0.653333 0.875 0 0.653333 0.875 0 49.2 42 0
304 0 0 0 51.6 30 0 0.693333 0.675 0 0.693333 0.675 0 51.6 30 0
300 -1 0 0 61.2 32.4 0 0.853333 0.715 0 -0.146667 0.715 0 1.2 32.4 0
296 0 0 0 10.8 32.4 0 0.0133333 0.715 0 0.0133333 0.715 0 10.8 32.4 0
184 0 0 0 39.6 42 0 0.493333 0.875 0 0.493333 0.875 0 39.6 42 0
292 0 0 0 20.4 32.4 0 0.173333 0.715 0 0.173333 0.715 0 20.4 32.4 0
288 0 0 0 30 32.4 0 0.333333 0.715 0 0.333333 0.715 0 30 32.4 0
284 0 0 0 39.6 32.4 0 0.493333 0.715 0 0.493333 0.715 0 39.6 32.4 0
188 0 0 0 30 42 0 0.333333 0.875 0 0.333333 0.875 0 30 42 0
280 0 0 0 49.2 32.4 0 0.653333 0.715 0 0.653333 0.715 0 49.2 32.4 0
276 0 0 0 58.8 32.4 0 0.813333 0.715 0 0.813333 0.715 0 58.8 32.4 0
272 -1 0 0 68.4 34.8 0 0.973333 0.755 0 -0.0266667 0.755 0 8.4 34.8 0
192 0 0 0 20.4 42 0 0.173333 0.875 0 0.173333 0.875 0 20.4 42 0
268 0 0 0 18 34.8 0 0.133333 0.755 0 0.133333 0.755 0 18 34.8 0
264 0 0 0 27.6 34.8 0 0.293333 0.755 0 0.293333 0.755 0 27.6 34.8 0
260 0 0 0 37.2 34.8 0 0.453333 0.755 0 0.453333 0.755 0 37.2 34.8 0
196 0 0 0 10.8 42 0 0.0133333 0.875 0 0.0133333 0.875 0 10.8 42 0
256 0 0 0 46.8 34.8 0 0.613333 0.755 0 0.613333 0.755 0 46.8 34.8 0
252 0 0 0 56.4 34.8 0 0.773333 0.755 0 0.773333 0.755 0 56.4 34.8 0
248 -1 0 0 66 37.2 0 0.933333 0.795 0 -0.0666667 0.795 0 6 37.2 0
200 -1 0 0 61.2 42 0 0.853333 0.875 0 -0.146667 0.875 0 1.2 42 0
244 0 0 0 15.6 37.2 0 0.0933333 0.795 0 0.0933333 0.795 0 15.6 37.2 0
240 0 0 0 25.2 37.2 0 0.253333 0.795 0 0.253333 0.795 0 25.2 37.2 0
236 0 0 0 34.8 37.2 0 0.413333 0.795 0 0.413333 0.795 0 34.8 37.2 0
204 0 0 0 51.6 39.6 0 0.693333 0.835 0 0.693333 0.835 0 51.6 39.6 0
232 0 0 0 44.4 37.2 0 0.573333 0.795 0 0.573333 0.795 0 44.4 37.2 0
228 0 0 0 54 37.2 0 0.733333 0.795 0 0.733333 0.795 0 54 37.2 0
224 -1 0 0 63.6 39.6 0 0.893333 0.835 0 -0.106667 0.835 0 3.6 39.6 0
208 0 0 0 42 39.6 0 0.533333 0.835 0 0.533333 0.835 0 42 39.6 0
220 0 0 0 13.2 39.6 0 0.0533333 0.835 0 0.0533333 0.835 0 13.2 39.6 0
216 0 0 0 22.8 39.6 0 0.213333 0.835 0 0.213333 0.835 0 22.8 39.6 0
212 0 0 0 32.4 39.6 0 0.373333 0.835 0 0.373333 0.835 0 32.4 39.6 0
736 0 0 0 67.2657 30.0627 2.1141 0.954428 0.676045 0.0084564 0.954428 0.676045 0.0084564 67.2657 30.0627 2.1141
576 0 0 0 58.8 3.6 0 0.813333 0.235 0 0.813333 0.235 0 58.8 3.6 0
320 0 0 0 13.2 30 0 0.0533333 0.675 0 0.0533333 0.675 0 13.2 30 0
728 1 0 0 18.3955 0.158708 2.12587 0.139924 0.177645 0.00850347 1.13992 0.177645 0.00850347 78.3955 0.158708 2.12587
508 0 0 0 42 10.8 0 0.533333 0.355 0 0.533333 0.355 0 42 10.8 0
580 0 0 0 49.2 3.6 0 0.653333 0.235 0 0.653333 0.235 0 49.2 3.6 0
324 -1 0 0 63.6 30 0 0.893333 0.675 0 -0.106667 0.675 0 3.6 30 0
584 0 0 0 39.6 3.6 0 0.493333 0.235 0 0.493333 0.235 0 39.6 3.6 0
588 0 0 0 30 3.6 0 0.333333 0.235 0 0.333333 0.235 0 30 3.6 0
708 0 1 0 40.8501 -7.16226 1.75697 0.514169 0.0556289 0.00702789 0.514169 1.05563 0.00702789 40.8501 52.8377 1.75697
328 0 0 0 54 27.6 0 0.733333 0.635 0 0.733333 0.635 0 54 27.6 0
504 0 0 0 51.6 10.8 0 0.693333 0.355 0 0.693333 0.355 0 51.6 10.8 0
592 0 0 0 20.4 3.6 0 0.173333 0.235 0 0.173333 0.235 0 20.4 3.6 0
476 0 0 0 58.8 13.2 0 0.813333 0.395 0 0.813333 0.395 0 58.8 13.2 0
332 0 0 0 44.4 27.6 0 0.573333 0.635 0 0.573333 0.635 0 44.4 27.6 0
472 -1 0 0 68.4 15.6 0 0.973333 0.435 0 -0.0266667 0.435 0 8.4 15.6 0
468 0 0 0 18 15.6 0 0.133333 0.435 0 0.133333 0.435 0 18 15.6 0
464 0 0 0 27.6 15.6 0 0.293333 0.435 0 0.293333 0.435 0 27.6 15.6 0
336 0 0 0 34.8 27.6 0 0.413333 0.635 0 0.413333 0.635 0 34.8 27.6 0
460 0 0 0 37.2 15.6 0 0.453333 0.435 0 0.453333 0.435 0 37.2 15.6 0
456 0 0 0 46.8 15.6 0 0.613333 0.435 0 0.613333 0.435 0 46.8 15.6 0
452 0 0 0 56.4 15.6 0 0.773333 0.435 0 0.773333 0.435 0 56.4 15.6 0
340 0 0 0 25.2 27.6 0 0.253333 0.635 0 0.253333 0.635 0 25.2 27.6 0
448 -1 0 0 66 18 0 0.933333 0.475 0 -0.0666667 0.475 0 6 18 0
444 0 0 0 15.6 18 0 0.0933333 0.475 0 0.0933333 0.475 0 15.6 18 0
440 0 0 0 25.2 18 0 0.253333 0.475 0 0.253333 0.475 0 25.2 18 0
344 0 0 0 15.6 27.6 0 0.0933333 0.635 0 0.0933333 0.635 0 15.6 27.6 0
436 0 0 0 34.8 18 0 0.413333 0.475 0 0.413333 0.475 0 34.8 18 0
432 0 0 0 44.4 18 0 0.573333 0.475 0 0.573333 0.475 0 44.4 18 0
428 0 0 0 54 18 0 0.733333 0.475 0 0.733333 0.475 0 54 18 0
348 -1 0 0 66 27.6 0 0.933333 0.635 0 -0.0666667 0.635 0 6 27.6 0
424 -1 0 0 63.6 20.4 0 0.893333 0.515 0 -0.106667 0.515 0 3.6 20.4 0
420 0 0 0 13.2 20.4 0 0.0533333 0.515 0 0.0533333 0.515 0 13.2 20.4 0
416 0 0 0 22.8 20.4 0 0.213333 0.515 0 0.213333 0.515 0 22.8 20.4 0
352 0 0 0 56.4 25.2 0 0.773333 0.595 0 0.773333 0.595 0 56.4 25.2 0
412 0 0 0 32.4 20.4 0 0.373333 0.515 0 0.373333 0.515 0 32.4 20.4 0
408 0 0 0 42 20.4 0 0.533333 0.515 0 0.533333 0.515 0 42 20.4 0
404 0 0 0 51.6 20.4 0 0.693333 0.515 0 0.693333 0.515 0 51.6 20.4 0
356 0 0 0 46.8 25.2 0 0.613333 0.595 0 0.613333 0.595 0 46.8 25.2 0
400 -1 0 0 61.2 22.8 0 0.853333 0.555 0 -0.146667 0.555 0 1.2 22.8 0
396 0 0 0 10.8 22.8 0 0.0133333 0.555 0 0.0133333 0.555 0 10.8 22.8 0
392 0 0 0 20.4 22.8 0 0.173333 0.555 0 0.173333 0.555 0 20.4 22.8 0
360 0 0 0 37.2 25.2 0 0.453333 0.595 0 0.453333 0.595 0 37.2 25.2 0
388 0 0 0 30 22.8 0 0.333333 0.555 0 0.333333 0.555 0 30 22.8 0
384 0 0 0 39.6 22.8 0 0.493333 0.555 0 0.493333 0.555 0 39.6 22.8 0
380 0 0 0 49.2 22.8 0 0.653333 0.555 0 0.653333 0.555 0 49.2 22.8 0
364 0 0 0 27.6 25.2 0 0.293333 0.595 0 0.293333 0.595 0 27.6 25.2 0
376 0 0 0 58.8 22.8 0 0.813333 0.555 0 0.813333 0.555 0 58.8 22.8 0
372 -1 0 0 68.4 25.2 0 0.973333 0.595 0 -0.0266667 0.595 0 8.4 25.2 0
368 0 0 0 18 25.2 0 0.133333 0.595 0 0.133333 0.595 0 18 25.2 0
480 0 0 0 49.2 13.2 0 0.653333 0.395 0 0.653333 0.395 0 49.2 13.2 0
615 0 0 0 25.2 1.2 0 0.253333 0.195 0 0.253333 0.195 0 25.2 1.2 0
596 0 0 0 10.8 3.6 0 0.0133333 0.235 0 0.0133333 0.235 0 10.8 3.6 0
764 0 0 0 50.3335 32.7527 3.31316 0.672225 0.720878 0.0132526 0.672225 0.720878 0.0132526 50.3335 32.7527 3.31316
484 0 0 0 39.6 13.2 0 0.493333 0.395 0 0.493333 0.395 0 39.6 13.2 0
765 -5 2 0 43.4198 -2.63236 1.9654 0.556996 0.131127 0.00786161 -4.443 2.13113 0.00786161 -256.58 117.368 1.9654
600 -1 0 0 61.2 3.6 0 0.853333 0.235 0 -0.146667 0.235 0 1.2 3.6 0
679 -2 0 0 69.3484 -5.72763 3.64614 0.989139 0.0795395 0.0145845 -1.01086 0.0795395 0.0145845 -50.6516 -5.72763 3.64614
488 0 0 0 30 13.2 0 0.333333 0.395 0 0.333333 0.395 0 30 13.2 0
500 -1 0 0 61.2 13.2 0 0.853333 0.395 0 -0.146667 0.395 0 1.2 13.2 0
604 0 0 0 51.6 1.2 0 0.693333 0.195 0 0.693333 0.195 0 51.6 1.2 0
740 1 2 0 59.6095 25.9253 2.13975 0.826826 0.607089 0.008559 1.82683 2.60709 0.008559 119.61 145.925 2.13975
492 0 0 0 20.4 13.2 0 0.173333 0.395 0 0.173333 0.395 0 20.4 13.2 0
624 -1 0 0 63.6 1.2 0 0.893333 0.195 0 -0.106667 0.195 0 3.6 1.2 0
620 0 0 0 13.2 1.2 0 0.0533333 0.195 0 0.0533333 0.195 0 13.2 1.2 0
616 0 0 0 22.8 1.2 0 0.213333 0.195 0 0.213333 0.195 0 22.8 1.2 0
496 0 0 0 10.8 13.2 0 0.0133333 0.395 0 0.0133333 0.395 0 10.8 13.2 0
612 0 0 0 32.4 1.2 0 0.373333 0.195 0 0.373333 0.195 0 32.4 1.2 0
608 0 0 0 42 1.2 0 0.533333 0.195 0 0.533333 0.195 0 42 1.2 0
693 0 0 0 68.8043 1.65276 2.32196 0.980072 0.202546 0.00928785 0.980072 0.202546 0.00928785 68.8043 1.65276 2.32196
525 -1 0 0 61.2 10.8 0 0.853333 0.355 0 -0.146667 0.355 0 1.2 10.8 0
529 0 0 0 51.6 8.4 0 0.693333 0.315 0 0.693333 0.315 0 51.6 8.4 0
533 0 0 0 42 8.4 0 0.533333 0.315 0 0.533333 0.315 0 42 8.4 0
537 0 0 0 32.4 8.4 0 0.373333 0.315 0 0.373333 0.315 0 32.4 8.4 0
521 0 0 0 10.8 10.8 0 0.0133333 0.355 0 0.0133333 0.355 0 10.8 10.8 0
541 0 0 0 22.8 8.4 0 0.213333 0.315 0 0.213333 0.315 0 22.8 8.4 0
545 0 0 0 13.2 8.4 0 0.0533333 0.315 0 0.0533333 0.315 0 13.2 8.4 0
549 -1 0 0 63.6 8.4 0 0.893333 0.315 0 -0.106667 0.315 0 3.6 8.4 0
517 0 0 0 20.4 10.8 0 0.173333 0.355 0 0.173333 0.355 0 20.4 10.8 0
553 0 0 0 54 6 0 0.733333 0.275 0 0.733333 0.275 0 54 6 0
557 0 0 0 44.4 6 0 0.573333 0.275 0 0.573333 0.275 0 44.4 6 0
561 0 0 0 34.8 6 0 0.413333 0.275 0 0.413333 0.275 0 34.8 6 0
513 0 0 0 30 10.8 0 0.333333 0.355 0 0.333333 0.355 0 30 10.8 0
565 0 0 0 25.2 6 0 0.253333 0.275 0 0.253333 0.275 0 25.2 6 0
569 0 0 0 15.6 6 0 0.0933333 0.275 0 0.0933333 0.275 0 15.6 6 0
573 -1 0 0 66 6 0 0.933333 0.275 0 -0.0666667 0.275 0 6 6 0
509 0 0 0 39.6 10.8 0 0.493333 0.355 0 0.493333 0.355 0 39.6 10.8 0
577 0 0 0 56.4 3.6 0 0.773333 0.235 0 0.773333 0.235 0 56.4 3.6 0
581 0 0 0 46.8 3.6 0 0.613333 0.235 0 0.613333 0.235 0 46.8 3.6 0
585 0 0 0 37.2 3.6 0 0.453333 0.235 0 0.453333 0.235 0 37.2 3.6 0
505 0 0 0 49.2 10.8 0 0.653333 0.355 0 0.653333 0.355 0 49.2 10.8 0
589 0 0 0 27.6 3.6 0 0.293333 0.235 0 0.293333 0.235 0 27.6 3.6 0
593 0 0 0 18 3.6 0 0.133333 0.235 0 0.133333 0.235 0 18 3.6 0
597 -1 0 0 68.4 3.6 0 0.973333 0.235 0 -0.0266667 0.235 0 8.4 3.6 0
501 0 0 0 58.8 10.8 0 0.813333 0.355 0 0.813333 0.355 0 58.8 10.8 0
601 0 0 0 58.8 1.2 0 0.813333 0.195 0 0.813333 0.195 0 58.8 1.2 0
605 0 0 0 49.2 1.2 0 0.653333 0.195 0 0.653333 0.195 0 49.2 1.2 0
609 0 0 0 39.6 1.2 0 0.493333 0.195 0 0.493333 0.195 0 39.6 1.2 0
497 -1 0 0 68.4 13.2 0 0.973333 0.395 0 -0.0266667 0.395 0 8.4 13.2 0
613 0 0 0 30 1.2 0 0.333333 0.195 0 0.333333 0.195 0 30 1.2 0
617 0 0 0 20.4 1.2 0 0.173333 0.195 0 0.173333 0.195 0 20.4 1.2 0
621 0 0 0 10.8 1.2 0 0.0133333 0.195 0 0.0133333 0.195 0 10.8 1.2 0
493 0 0 0 18 13.2 0 0.133333 0.395 0 0.133333 0.395 0 18 13.2 0
625 -1 0 0 61.2 1.2 0 0.853333 0.195 0 -0.146667 0.195 0 1.2 1.2 0
489 0 0 0 27.6 13.2 0 0.293333 0.395 0 0.293333 0.395 0 27.6 13.2 0
647 1 0 0 44.0435 22.384 1.30259 0.567391 0.548066 0.00521038 1.56739 0.548066 0.00521038 104.043 22.384 1.30259
753 -1 0 0 47.1071 39.2923 2.36031 0.618451 0.829872 0.00944123 -0.381549 0.829872 0.00944123 -12.8929 39.2923 2.36031
485 0 0 0 37.2 13.2 0 0.453333 0.395 0 0.453333 0.395 0 37.2 13.2 0
481 0 0 0 46.8 13.2 0 0.613333 0.395 0 0.613333 0.395 0 46.8 13.2 0
637 0 -1 0 31.5831 36.8072 2.22225 0.359719 0.788453 0.00888901 0.359719 -0.211547 0.00888901 31.5831 -23.1928 2.22225
369 0 0 0 15.6 25.2 0 0.0933333 0.595 0 0.0933333 0.595 0 15.6 25.2 0
373 -1 0 0 66 25.2 0 0.933333 0.595 0 -0.0666667 0.595 0 6 25.2 0
365 0 0 0 25.2 25.2 0 0.253333 0.595 0 0.253333 0.595 0 25.2 25.2 0
377 0 0 0 56.4 22.8 0 0.773333 0.555 0 0.773333 0.555 0 56.4 22.8 0
381 0 0 0 46.8 22.8 0 0.613333 0.555 0 0.613333 0.555 0 46.8 22.8 0
385 0 0 0 37.2 22.8 0 0.453333 0.555 0 0.453333 0.555 0 37.2 22.8 0
361 0 0 0 34.8 25.2 0 0.413333 0.595 0 0.413333 0.595 0 34.8 25.2 0
389 0 0 0 27.6 22.8 0 0.293333 0.555 0 0.293333 0.555 0 27.6 22.8 0
393 0 0 0 18 22.8 0 0.133333 0.555 0 0.133333 0.555 0 18 22.8 0
397 -1 0 0 68.4 22.8 0 0.973333 0.555 0 -0.0266667 0.555 0 8.4 22.8 0
357 0 0 0 44.4 25.2 0 0.573333 0.595 0 0.573333 0.595 0 44.4 25.2 0
401 0 0 0 58.8 20.4 0 0.813333 0.515 0 0.813333 0.515 0 58.8 20.4 0
405 0 0 0 49.2 20.4 0 0.653333 0.515 0 0.653333 0.515 0 49.2 20.4 0
409 0 0 0 39.6 20.4 0 0.493333 0.515 0 0.493333 0.515 0 39.6 20.4 0
353 0 0 0 54 25.2 0 0.733333 0.595 0 0.733333 0.595 0 54 25.2 0
413 0 0 0 30 20.4 0 0.333333 0.515 0 0.333333 0.515 0 30 20.4 0
417 0 0 0 20.4 20.4 0 0.173333 0.515 0 0.173333 0.515 0 20.4 20.4 0
421 0 0 0 10.8 20.4 0 0.0133333 0.515 0 0.0133333 0.515 0 10.8 20.4 0
349 -1 0 0 63.6 27.6 0 0.893333 0.635 0 -0.106667 0.635 0 3.6 27.6 0
425 -1 0 0 61.2 20.4 0 0.853333 0.515 0 -0.146667 0.515 0 1.2 20.4 0
429 0 0 0 51.6 18 0 0.693333 0.475 0 0.693333 0.475 0 51.6 18 0
433 0 0 0 42 18 0 0.533333 0.475 0 0.533333 0.475 0 42 18 0
345 0 0 0 13.2 27.6 0 0.0533333 0.635 0 0.0533333 0.635 0 13.2 27.6 0
437 0 0 0 32.4 18 0 0.373333 0.475 0 0.373333 0.475 0 32.4 18 0
441 0 0 0 22.8 18 0 0.213333 0.475 0 0.213333 0.475 0 22.8 18 0
445 0 0 0 13.2 18 0 0.0533333 0.475 0 0.0533333 0.475 0 13.2 18 0
341 0 0 0 22.8 27.6 0 0.213333 0.635 0 0.213333 0.635 0 22.8 27.6 0
449 -1 0 0 63.6 18 0 0.893333 0.475 0 -0.106667 0.475 0 3.6 18 0
453 0 0 0 54 15.6 0 0.733333 0.435 0 0.733333 0.435 0 54 15.6 0
457 0 0 0 44.4 15.6 0 0.573333 0.435 0 0.573333 0.435 0 44.4 15.6 0
337 0 0 0 32.4 27.6 0 0.373333 0.635 0 0.373333 0.635 0 32.4 27.6 0
461 0 0 0 34.8 15.6 0 0.413333 0.435 0 0.413333 0.435 0 34.8 15.6 0
465 0 0 0 25.2 15.6 0 0.253333 0.435 0 0.253333 0.435 0 25.2 15.6 0
469 0 0 0 15.6 15.6 0 0.0933333 0.435 0 0.0933333 0.435 0 15.6 15.6 0
333 0 0 0 42 27.6 0 0.533333 0.635 0 0.533333 0.635 0 42 27.6 0
473 -1 0 0 66 15.6 0 0.933333 0.435 0 -0.0666667 0.435 0 6 15.6 0
477 0 0 0 56.4 13.2 0 0.773333 0.395 0 0.773333 0.395 0 56.4 13.2 0
169 0 0 0 15.6 44.4 0 0.0933333 0.915 0 0.0933333 0.915 0 15.6 44.4 0
329 0 0 0 51.6 27.6 0 0.693333 0.635 0 0.693333 0.635 0 51.6 27.6 0
325 -1 0 0 61.2 30 0 0.853333 0.675 0 -0.146667 0.675 0 1.2 30 0
321 0 0 0 10.8 30 0 0.0133333 0.675 0 0.0133333 0.675 0 10.8 30 0
317 0 0 0 20.4 30 0 0.173333 0.675 0 0.173333 0.675 0 20.4 30 0
53 0 1 0 54 -6 0 0.733333 0.075 0 0.733333 1.075 0 54 54 0
57 0 1 0 44.4 -6 0 0.573333 0.075 0 0.573333 1.075 0 44.4 54 0
61 0 1 0 34.8 -6 0 0.413333 0.075 0 0.413333 1.075 0 34.8 54 0
49 -1 1 0 63.6 -3.6 0 0.893333 0.115 0 -0.106667 1.115 0 3.6 56.4 0
65 0 1 0 25.2 -6 0 0.253333 0.075 0 0.253333 1.075 0 25.2 54 0
69 0 1 0 15.6 -6 0 0.0933333 0.075 0 0.0933333 1.075 0 15.6 54 0
73 -1 1 0 66 -6 0 0.933333 0.075 0 -0.0666667 1.075 0 6 54 0
45 0 1 0 13.2 -3.6 0 0.0533333 0.115 0 0.0533333 1.115 0 13.2 56.4 0
77 0 1 0 56.4 -8.4 0 0.773333 0.035 0 0.773333 1.035 0 56.4 51.6 0
81 0 1 0 46.8 -8.4 0 0.613333 0.035 0 0.613333 1.035 0 46.8 51.6 0
85 0 1 0 37.2 -8.4 0 0.453333 0.035 0 0.453333 1.035 0 37.2 51.6 0
41 0 1 0 22.8 -3.6 0 0.213333 0.115 0 0.213333 1.115 0 22.8 56.4 0
89 0 1 0 27.6 -8.4 0 0.293333 0.035 0 0.293333 1.035 0 27.6 51.6 0
93 0 1 0 18 -8.4 0 0.133333 0.035 0 0.133333 1.035 0 18 51.6 0
97 -1 1 0 68.4 -8.4 0 0.973333 0.035 0 -0.0266667 1.035 0 8.4 51.6 0
37 0 1 0 32.4 -3.6 0 0.373333 0.115 0 0.373333 1.115 0 32.4 56.4 0
101 0 0 0 58.8 49.2 0 0.813333 0.995 0 0.813333 0.995 0 58.8 49.2 0
105 0 0 0 49.2 49.2 0 0.653333 0.995 0 0.653333 0.995 0 49.2 49.2 0
109 0 0 0 39.6 49.2 0 0.493333 0.995 0 0.493333 0.995 0 39.6 49.2 0
33 0 1 0 42 -3.6 0 0.533333 0.115 0 0.533333 1.115 0 42 56.4 0
113 0 0 0 30 49.2 0 0.333333 0.995 0 0.333333 0.995 0 30 49.2 0
117 0 0 0 20.4 49.2 0 0.173333 0.995 0 0.173333 0.995 0 20.4 49.2 0
121 0 0 0 10.8 49.2 0 0.0133333 0.995 0 0.0133333 0.995 0 10.8 49.2 0
29 0 1 0 51.6 -3.6 0 0.693333 0.115 0 0.693333 1.115 0 51.6 56.4 0
125 -1 0 0 61.2 49.2 0 0.853333 0.995 0 -0.146667 0.995 0 1.2 49.2 0
129 0 0 0 51.6 46.8 0 0.693333 0.955 0 0.693333 0.955 0 51.6 46.8 0
133 0 0 0 42 46.8 0 0.533333 0.955 0 0.533333 0.955 0 42 46.8 0
25 -1 1 0 61.2 -1.2 0 0.853333 0.155 0 -0.146667 1.155 0 1.2 58.8 0
137 0 0 0 32.4 46.8 0 0.373333 0.955 0 0.373333 0.955 0 32.4 46.8 0
141 0 0 0 22.8 46.8 0 0.213333 0.955 0 0.213333 0.955 0 22.8 46.8 0
145 0 0 0 13.2 46.8 0 0.0533333 0.955 0 0.0533333 0.955 0 13.2 46.8 0
21 0 1 0 10.8 -1.2 0 0.0133333 0.155 0 0.0133333 1.155 0 10.8 58.8 0
149 -1 0 0 63.6 46.8 0 0.893333 0.955 0 -0.106667 0.955 0 3.6 46.8 0
153 0 0 0 54 44.4 0 0.733333 0.915 0 0.733333 0.915 0 54 44.4 0
157 0 0 0 44.4 44.4 0 0.573333 0.915 0 0.573333 0.915 0 44.4 44.4 0
17 0 1 0 20.4 -1.2 0 0.173333 0.155 0 0.173333 1.155 0 20.4 58.8 0
161 0 0 0 34.8 44.4 0 0.413333 0.915 0 0.413333 0.915 0 34.8 44.4 0
165 0 0 0 25.2 44.4 0 0.253333 0.915 0 0.253333 0.915 0 25.2 44.4 0
13 0 1 0 30 -1.2 0 0.333333 0.155 0 0.333333 1.155 0 30 58.8 0
633 0 0 0 43.3451 29.3053 2.04077 0.555752 0.663422 0.00816307 0.555752 0.663422 0.00816307 43.3451 29.3053 2.04077
491 0 0 0 22.8 13.2 0 0.213333 0.395 0 0.213333 0.395 0 22.8 13.2 0
9 0 1 0 39.6 -1.2 0 0.493333 0.155 0 0.493333 1.155 0 39.6 58.8 0
649 0 2 0 45.6111 9.8299 1.84539 0.593519 0.338832 0.00738157 0.593519 2.33883 0.00738157 45.6111 129.83 1.84539
5 0 1 0 49.2 -1.2 0 0.653333 0.155 0 0.653333 1.155 0 49.2 58.8 0
674 -1 3 0 64.8456 7.44289 1.87387 0.914094 0.299048 0.00749549 -0.085906 3.29905 0.00749549 4.84564 187.443 1.87387
1 0 1 0 58.8 -1.2 0 0.813333 0.155 0 0.813333 1.155 0 58.8 58.8 0
213 0 0 0 30 39.6 0 0.333333 0.835 0 0.333333 0.835 0 30 39.6 0
209 0 0 0 39.6 39.6 0 0.493333 0.835 0 0.493333 0.835 0 39.6 39.6 0
217 0 0 0 20.4 39.6 0 0.173333 0.835 0 0.173333 0.835 0 20.4 39.6 0
221 0 0 0 10.8 39.6 0 0.0133333 0.835 0 0.0133333 0.835 0 10.8 39.6 0
225 -1 0 0 61.2 39.6 0 0.853333 0.835 0 -0.146667 0.835 0 1.2 39.6 0
205 0 0 0 49.2 39.6 0 0.653333 0.835 0 0.653333 0.835 0 49.2 39.6 0
229 0 0 0 51.6 37.2 0 0.693333 0.795 0 0.693333 0.795 0 51.6 37.2 0
233 0 0 0 42 37.2 0 0.533333 0.795 0 0.533333 0.795 0 42 37.2 0
237 0 0 0 32.4 37.2 0 0.373333 0.795 0 0.373333 0.795 0 32.4 37.2 0
201 0 0 0 58.8 39.6 0 0.813333 0.835 0 0.813333 0.835 0 58.8 39.6 0
241 0 0 0 22.8 37.2 0 0.213333 0.795 0 0.213333 0.795 0 22.8 37.2 0
245 0 0 0 13.2 37.2 0 0.0533333 0.795 0 0.0533333 0.795 0 13.2 37.2 0
249 -1 0 0 63.6 37.2 0 0.893333 0.795 0 -0.106667 0.795 0 3.6 37.2 0
197 -1 0 0 68.4 42 0 0.973333 0.875 0 -0.0266667 0.875 0 8.4 42 0
253 0 0 0 54 34.8 0 0.733333 0.755 0 0.733333 0.755 0 54 34.8 0
257 0 0 0 44.4 34.8 0 0.573333 0.755 0 0.573333 0.755 0 44.4 34.8 0
261 0 0 0 34.8 34.8 0 0.413333 0.755 0 0.413333 0.755 0 34.8 34.8 0
193 0 0 0 18 42 0 0.133333 0.875 0 0.133333 0.875 0 18 42 0
265 0 0 0 25.2 34.8 0 0.253333 0.755 0 0.253333 0.755 0 25.2 34.8 0
269 0 0 0 15.6 34.8 0 0.0933333 0.755 0 0.0933333 0.755 0 15.6 34.8 0
273 -1 0 0 66 34.8 0 0.933333 0.755 0 -0.0666667 0.755 0 6 34.8 0
189 0 0 0 27.6 42 0 0.293333 0.875 0 0.293333 0.875 0 27.6 42 0
277 0 0 0 56.4 32.4 0 0.773333 0.715 0 0.773333 0.715 0 56.4 32.4 0
281 0 0 0 46.8 32.4 0 0.613333 0.715 0 0.613333 0.715 0 46.8 32.4 0
285 0 0 0 37.2 32.4 0 0.453333 0.715 0 0.453333 0.715 0 37.2 32.4 0
185 0 0 0 37.2 42 0 0.453333 0.875 0 0.453333 0.875 0 37.2 42 0
289 0 0 0 27.6 32.4 0 0.293333 0.715 0 0.293333 0.715 0 27.6 32.4 0
293 0 0 0 18 32.4 0 0.133333 0.715 0 0.133333 0.715 0 18 32.4 0
297 -1 0 0 68.4 32.4 0 0.973333 0.715 0 -0.0266667 0.715 0 8.4 32.4 0
181 0 0 0 46.8 42 0 0.613333 0.875 0 0.613333 0.875 0 46.8 42 0
301 0 0 0 58.8 30 0 0.813333 0.675 0 0.813333 0.675 0 58.8 30 0
305 0 0 0 49.2 30 0 0.653333 0.675 0 0.653333 0.675 0 49.2 30 0
309 0 0 0 39.6 30 0 0.493333 0.675 0 0.493333 0.675 0 39.6 30 0
177 0 0 0 56.4 42 0 0.773333 0.875 0 0.773333 0.875 0 56.4 42 0
313 0 0 0 30 30 0 0.333333 0.675 0 0.333333 0.675 0 30 30 0
173 -1 0 0 66 44.4 0 0.933333 0.915 0 -0.0666667 0.915 0 6 44.4 0
318 0 0 0 18 30 0 0.133333 0.675 0 0.133333 0.675 0 18 30 0
526 0 0 0 58.8 8.4 0 0.813333 0.315 0 0.813333 0.315 0 58.8 8.4 0
530 0 0 0 49.2 8.4 0 0.653333 0.315 0 0.653333 0.315 0 49.2 8.4 0
534 0 0 0 39.6 8.4 0 0.493333 0.315 0 0.493333 0.315 0 39.6 8.4 0
522 -1 0 0 68.4 10.8 0 0.973333 0.355 0 -0.0266667 0.355 0 8.4 10.8 0
538 0 0 0 30 8.4 0 0.333333 0.315 0 0.333333 0.315 0 30 8.4 0
542 0 0 0 20.4 8.4 0 0.173333 0.315 0 0.173333 0.315 0 20.4 8.4 0
546 0 0 0 10.8 8.4 0 0.0133333 0.315 0 0.0133333 0.315 0 10.8 8.4 0
518 0 0 0 18 10.8 0 0.133333 0.355 0 0.133333 0.355 0 18 10.8 0
550 -1 0 0 61.2 8.4 0 0.853333 0.315 0 -0.146667 0.315 0 1.2 8.4 0
554 0 0 0 51.6 6 0 0.693333 0.275 0 0.693333 0.275 0 51.6 6 0
558 0 0 0 42 6 0 0.533333 0.275 0 0.533333 0.275 0 42 6 0
514 0 0 0 27.6 10.8 0 0.293333 0.355 0 0.293333 0.355 0 27.6 10.8 0
562 0 0 0 32.4 6 0 0.373333 0.275 0 0.373333 0.275 0 32.4 6 0
566 0 0 0 22.8 6 0 0.213333 0.275 0 0.213333 0.275 0 22.8 6 0
570 0 0 0 13.2 6 0 0.0533333 0.275 0 0.0533333 0.275 0 13.2 6 0
510 0 0 0 37.2 10.8 0 0.453333 0.355 0 0.453333 0.355 0 37.2 10.8 0
574 -1 0 0 63.6 6 0 0.893333 0.275 0 -0.106667 0.275 0 3.6 6 0
578 0 0 0 54 3.6 0 0.733333 0.235 0 0.733333 0.235 0 54 3.6 0
582 0 0 0 44.4 3.6 0 0.573333 0.235 0 0.573333 0.235 0 44.4 3.6 0
506 0 0 0 46.8 10.8 0 0.613333 0.355 0 0.613333 0.355 0 46.8 10.8 0
586 0 0 0 34.8 3.6 0 0.413333 0.235 0 0.413333 0.235 0 34.8 3.6 0
590 0 0 0 25.2 3.6 0 0.253333 0.235 0 0.253333 0.235 0 25.2 3.6 0
594 0 0 0 15.6 3.6 0 0.0933333 0.235 0 0.0933333 0.235 0 15.6 3.6 0
502 0 0 0 56.4 10.8 0 0.773333 0.355 0 0.773333 0.355 0 56.4 10.8 0
598 -1 0 0 66 3.6 0 0.933333 0.235 0 -0.0666667 0.235 0 6 3.6 0
602 0 0 0 56.4 1.2 0 0.773333 0.195 0 0.773333 0.195 0 56.4 1.2 0
606 0 0 0 46.8 1.2 0 0.613333 0.195 0 0.613333 0.195 0 46.8 1.2 0
498 -1 0 0 66 13.2 0 0.933333 0.395 0 -0.0666667 0.395 0 6 13.2 0
610 0 0 0 37.2 1.2 0 0.453333 0.195 0 0.453333 0.195 0 37.2 1.2 0
614 0 0 0 27.6 1.2 0 0.293333 0.195 0 0.293333 0.195 0 27.6 1.2 0
618 0 0 0 18 1.2 0 0.133333 0.195 0 0.133333 0.195 0 18 1.2 0
494 0 0 0 15.6 13.2 0 0.0933333 0.395 0 0.0933333 0.395 0 15.6 13.2 0
622 -1 0 0 68.4 1.2 0 0.973333 0.195 0 -0.0266667 0.195 0 8.4 1.2 0
490 0 0 0 25.2 13.2 0 0.253333 0.395 0 0.253333 0.395 0 25.2 13.2 0
701 0 1 0 16.3576 24.8174 2.24493 0.10596 0.588624 0.00897971 0.10596 1.58862 0.00897971 16.3576 84.8174 2.24493
694 -1 0 0 64.4758 47.1005 2.21419 0.907931 0.960008 0.00885675 -0.0920694 0.960008 0.00885675 4.47584 47.1005 2.21419
486 0 0 0 34.8 13.2 0 0.413333 0.395 0 0.413333 0.395 0 34.8 13.2 0
482 0 0 0 44.4 13.2 0 0.573333 0.395 0 0.573333 0.395 0 44.4 13.2 0
322 -1 0 0 68.4 30 0 0.973333 0.675 0 -0.0266667 0.675 0 8.4 30 0
478 0 0 0 54 13.2 0 0.733333 0.395 0 0.733333 0.395 0 54 13.2 0
214 0 0 0 27.6 39.6 0 0.293333 0.835 0 0.293333 0.835 0 27.6 39.6 0
210 0 0 0 37.2 39.6 0 0.453333 0.835 0 0.453333 0.835 0 37.2 39.6 0
218 0 0 0 18 39.6 0 0.133333 0.835 0 0.133333 0.835 0 18 39.6 0
222 -1 0 0 68.4 39.6 0 0.973333 0.835 0 -0.0266667 0.835 0 8.4 39.6 0
226 0 0 0 58.8 37.2 0 0.813333 0.795 0 0.813333 0.795 0 58.8 37.2 0
206 0 0 0 46.8 39.6 0 0.613333 0.835 0 0.613333 0.835 0 46.8 39.6 0
230 0 0 0 49.2 37.2 0 0.653333 0.795 0 0.653333 0.795 0 49.2 37.2 0
234 0 0 0 39.6 37.2 0 0.493333 0.795 0 0.493333 0.795 0 39.6 37.2 0
238 0 0 0 30 37.2 0 0.333333 0.795 0 0.333333 0.795 0 30 37.2 0
202 0 0 0 56.4 39.6 0 0.773333 0.835 0 0.773333 0.835 0 56.4 39.6 0
242 0 0 0 20.4 37.2 0 0.173333 0.795 0 0.173333 0.795 0 20.4 37.2 0
246 0 0 0 10.8 37.2 0 0.0133333 0.795 0 0.0133333 0.795 0 10.8 37.2 0
250 -1 0 0 61.2 37.2 0 0.853333 0.795 0 -0.146667 0.795 0 1.2 37.2 0
198 -1 0 0 66 42 0 0.933333 0.875 0 -0.0666667 0.875 0 6 42 0
254 0 0 0 51.6 34.8 0 0.693333 0.755 0 0.693333 0.755 0 51.6 34.8 0
258 0 0 0 42 34.8 0 0.533333 0.755 0 0.533333 0.755 0 42 34.8 0
262 0 0 0 32.4 34.8 0 0.373333 0.755 0 0.373333 0.755 0 32.4 34.8 0
194 0 0 0 15.6 42 0 0.0933333 0.875 0 0.0933333 0.875 0 15.6 42 0
266 0 0 0 22.8 34.8 0 0.213333 0.755 0 0.213333 0.755 0 22.8 34.8 0
270 0 0 0 13.2 34.8 0 0.0533333 0.755 0 0.0533333 0.755 0 13.2 34.8 0
274 -1 0 0 63.6 34.8 0 0.893333 0.755 0 -0.106667 0.755 0 3.6 34.8 0
190 0 0 0 25.2 42 0 0.253333 0.875 0 0.253333 0.875 0 25.2 42 0
278 0 0 0 54 32.4 0 0.733333 0.715 0 0.733333 0.715 0 54 32.4 0
282 0 0 0 44.4 32.4 0 0.573333 0.715 0 0.573333 0.715 0 44.4 32.4 0
286 0 0 0 34.8 32.4 0 0.413333 0.715 0 0.413333 0.715 0 34.8 32.4 0
186 0 0 0 34.8 42 0 0.413333 0.875 0 0.413333 0.875 0 34.8 42 0
290 0 0 0 25.2 32.4 0 0.253333 0.715 0 0.253333 0.715 0 25.2 32.4 0
294 0 0 0 15.6 32.4 0 0.0933333 0.715 0 0.0933333 0.715 0 15.6 32.4 0
298 -1 0 0 66 32.4 0 0.933333 0.715 0 -0.0666667 0.715 0 6 32.4 0
182 0 0 0 44.4 42 0 0.573333 0.875 0 0.573333 0.875 0 44.4 42 0
302 0 0 0 56.4 30 0 0.773333 0.675 0 0.773333 0.675 0 56.4 30 0
306 0 0 0 46.8 30 0 0.613333 0.675 0 0.613333 0.675 0 46.8 30 0
310 0 0 0 37.2 30 0 0.453333 0.675 0 0.453333 0.675 0 37.2 30 0
178 0 0 0 54 42 0 0.733333 0.875 0 0.733333 0.875 0 54 42 0
314 0 0 0 27.6 30 0 0.293333 0.675 0 0.293333 0.675 0 27.6 30 0
174 -1 0 0 63.6 44.4 0 0.893333 0.915 0 -0.106667 0.915 0 3.6 44.4 0
666 0 0 0 10.8983 -4.68918 2.13636 0.0149711 0.0968471 0.00854544 0.0149711 0.0968471 0.00854544 10.8983 -4.68918 2.13636
678 0 0 0 61.8364 22.7597 2.31373 0.86394 0.554328 0.00925491 0.86394 0.554328 0.00925491 61.8364 22.7597 2.31373
170 0 0 0 13.2 44.4 0 0.0533333 0.915 0 0.0533333 0.915 0 13.2 44.4 0
732 0 2 0 22.397 -0.26889 2.175 0.206617 0.170519 0.0087 0.206617 2.17052 0.0087 22.397 119.731 2.175
619 0 0 0 15.6 1.2 0 0.0933333 0.195 0 0.0933333 0.195 0 15.6 1.2 0
681 0 -1 0 11.295 46.2712 2.28808 0.0215831 0.946186 0.00915234 0.0215831 -0.0538138 0.00915234 11.295 -13.7288 2.28808
166 0 0 0 22.8 44.4 0 0.213333 0.915 0 0.213333 0.915 0 22.8 44.4 0
54 0 1 0 51.6 -6 0 0.693333 0.075 0 0.693333 1.075 0 51.6 54 0
58 0 1 0 42 -6 0 0.533333 0.075 0 0.533333 1.075 0 42 54 0
50 -1 1 0 61.2 -3.6 0 0.853333 0.115 0 -0.146667 1.115 0 1.2 56.4 0
62 0 1 0 32.4 -6 0 0.373333 0.075 0 0.373333 1.075 0 32.4 54 0
66 0 1 0 22.8 -6 0 0.213333 0.075 0 0.213333 1.075 0 22.8 54 0
70 0 1 0 13.2 -6 0 0.0533333 0.075 0 0.0533333 1.075 0 13.2 54 0
46 0 1 0 10.8 -3.6 0 0.0133333 0.115 0 0.0133333 1.115 0 10.8 56.4 0
74 -1 1 0 63.6 -6 0 0.893333 0.075 0 -0.106667 1.075 0 3.6 54 0
78 0 1 0 54 -8.4 0 0.733333 0.035 0 0.733333 1.035 0 54 51.6 0
82 0 1 0 44.4 -8.4 0 0.573333 0.035 0 0.573333 1.035 0 44.4 51.6 0
42 0 1 0 20.4 -3.6 0 0.173333 0.115 0 0.173333 1.115 0 20.4 56.4 0
86 0 1 0 34.8 -8.4 0 0.413333 0.035 0 0.413333 1.035 0 34.8 51.6 0
90 0 1 0 25.2 -8.4 0 0.253333 0.035 0 0.253333 1.035 0 25.2 51.6 0
94 0 1 0 15.6 -8.4 0 0.0933333 0.035 0 0.0933333 1.035 0 15.6 51.6 0
38 0 1 0 30 -3.6 0 0.333333 0.115 0 0.333333 1.115 0 30 56.4 0
98 -1 1 0 66 -8.4 0 0.933333 0.035 0 -0.0666667 1.035 0 6 51.6 0