ITEM: TIMESTEP
0
ITEM: NUMBER OF ATOMS
512
ITEM: BOX BOUNDS pp pp pp
-1.4100500000000000e+00 2.1150751000000000e+01
-1.4100500000000000e+00 2.1150751000000000e+01
-1.4100500000000000e+00 2.1150751000000000e+01
ITEM: ATOMS xs ys zs vx vy vz 
0.0625 0.0625 0.0625 -0.00258494 0.00270859 -0.00314039 
0.0625 0.0625 0.1875 -0.00180102 0.000332969 0.00151514 
0.0625 0.0625 0.3125 -0.00463141 0.000820676 -0.000238893 
0.0625 0.1875 0.0625 0.00474092 0.00161189 -0.00487575 
0.0625 0.1875 0.1875 0.00303637 -0.00344903 -0.00191292 
0.0625 0.1875 0.3125 0.00416978 -0.00425702 -0.00154977 
0.0625 0.3125 0.0625 0.00113977 -0.000945305 -0.00338485 
0.0625 0.3125 0.1875 0.00491524 0.000442145 -0.00535915 
0.0625 0.3125 0.3125 -0.00262241 0.000398272 -0.00191469 
0.1875 0.0625 0.0625 0.000164057 0.00304592 0.00232988 
0.1875 0.0625 0.1875 -0.0039861 0.000169551 -0.00108089 
0.1875 0.0625 0.3125 0.00270419 0.00124714 0.00263057 
0.1875 0.1875 0.0625 -0.000307068 0.00144832 -0.000238305 
0.1875 0.1875 0.1875 -0.0029372 -0.0053406 -0.0030666 
0.1875 0.1875 0.3125 -0.00403824 -0.00234572 0.00187364 
0.1875 0.3125 0.0625 0.00460599 0.000173255 -0.00187212 
0.1875 0.3125 0.1875 0.00206807 0.00193231 -0.0029276 
0.1875 0.3125 0.3125 -0.00204201 -0.0041877 0.00224319 
0.3125 0.0625 0.0625 0.000422635 -0.000269895 -0.00171669 
0.3125 0.0625 0.1875 -0.00463391 -0.00238796 0.00367009 
0.3125 0.0625 0.3125 -7.73838e-05 -0.00399793 -0.00080245 
0.3125 0.1875 0.0625 0.001345 -6.97942e-06 0.00287574 
0.3125 0.1875 0.1875 -0.00279732 0.00170708 -0.000975067 
0.3125 0.1875 0.3125 -0.0021719 -0.00064796 0.00471869 
0.3125 0.3125 0.0625 -0.00329407 0.00154496 -0.00112904 
0.3125 0.3125 0.1875 0.00700727 0.00630429 0.000802597 
0.3125 0.3125 0.3125 0.000749953 -0.0012942 -0.00127918 
0.4375 0.0625 0.0625 -0.00064289 -0.00313357 0.00079134 
0.4375 0.0625 0.1875 -0.00081362 0.00550134 -0.00282976 
0.4375 0.0625 0.3125 0.00479729 -0.00115905 -0.00578539 
0.4375 0.1875 0.0625 -0.00207343 0.000465036 -0.00207308 
0.4375 0.1875 0.1875 -0.00182107 0.00580251 -0.0119053 
0.4375 0.1875 0.3125 0.000691164 -0.0053584 -0.00120938 
0.4375 0.3125 0.0625 0.00185688 0.0031811 -0.0052198 
0.4375 0.3125 0.1875 -0.00148204 0.000439109 -0.000265604 
0.4375 0.3125 0.3125 -0.00360463 -0.00438824 0.000221338 
0.5625 0.0625 0.0625 0.000501916 0.000337225 -0.00256938 
0.5625 0.0625 0.1875 0.00232821 -0.00143682 0.00136072 
0.5625 0.0625 0.3125 0.000107885 -0.000529077 -0.000993062 
0.5625 0.1875 0.0625 -0.00158932 0.00186366 -0.00230113 
0.5625 0.1875 0.1875 4.03088e-05 -0.00227625 -0.00378882 
0.5625 0.1875 0.3125 -0.00274293 -0.00252806 -0.00288432 
0.5625 0.3125 0.0625 0.00233641 -0.00223707 -0.00430069 
0.5625 0.3125 0.1875 0.00536216 0.00152015 0.0028496 
0.5625 0.3125 0.3125 0.000639099 0.000343676 -0.000468332 
0.6875 0.0625 0.0625 0.000708961 -0.00123397 0.00275121 
0.6875 0.0625 0.1875 -0.00529418 -0.00150828 -0.00141112 
0.6875 0.0625 0.3125 0.000147432 0.00215933 0.0034852 
0.6875 0.1875 0.0625 0.000862953 -0.00391878 -0.00344443 
0.6875 0.1875 0.1875 -0.00436348 0.00247767 0.00268627 
0.6875 0.1875 0.3125 -2.49938e-05 -0.00325952 0.00196661 
0.6875 0.3125 0.0625 -0.000977062 0.00064852 0.000589129 
0.6875 0.3125 0.1875 -0.00324269 -0.00050017 -0.000481688 
0.6875 0.3125 0.3125 0.00145714 -0.00483423 -0.000842254 
0.8125 0.0625 0.0625 0.00087773 0.00012125 0.00142154 
0.8125 0.0625 0.1875 0.00409954 0.00191446 -0.00362737 
0.8125 0.0625 0.3125 -0.000708153 -0.00218899 0.0015167 
0.8125 0.1875 0.0625 -0.00246587 0.0048553 0.000405671 
0.8125 0.1875 0.1875 0.00312952 0.00180904 -0.00442272 
0.8125 0.1875 0.3125 -0.000773468 -0.00132462 0.00127398 
0.8125 0.3125 0.0625 -0.00192457 0.00342266 0.0024077 
0.8125 0.3125 0.1875 -0.00368551 -0.00408341 -0.00165018 
0.8125 0.3125 0.3125 -0.000805368 -0.00313482 -0.00455747 
0.9375 0.0625 0.0625 -0.000865195 -0.00217606 0.00131206 
0.9375 0.0625 0.1875 -0.000150283 -0.000293513 0.00238931 
0.9375 0.0625 0.3125 0.000482878 0.00207197 0.000176478 
0.9375 0.1875 0.0625 0.000160409 -0.00220988 0.00289114 
0.9375 0.1875 0.1875 0.00132222 -0.00444811 -0.00484636 
0.9375 0.1875 0.3125 0.00221143 -0.00342844 0.00491977 
0.9375 0.3125 0.0625 0.00257623 -0.00279654 -0.000905907 
0.9375 0.3125 0.1875 0.000965694 -0.000611728 0.00592558 
0.9375 0.3125 0.3125 0.00162819 0.00341672 0.00344024 
0.0625 0.4375 0.0625 -0.001777 -0.00581216 0.00648833 
0.0625 0.4375 0.1875 0.00220206 0.000249579 -0.00179328 
0.0625 0.4375 0.3125 -0.000835068 0.000190034 -0.00267163 
0.0625 0.5625 0.0625 -0.000679409 -0.00226886 0.000778291 
0.0625 0.5625 0.1875 -0.000855891 -0.00204268 -0.000412673 
0.0625 0.5625 0.3125 -0.00445461 0.00294075 -0.00155323 
0.1875 0.4375 0.0625 -0.000986712 -0.00260306 -0.00253177 
0.1875 0.4375 0.1875 0.00200038 0.000588376 -0.000623789 
0.1875 0.4375 0.3125 -0.000916089 0.000783506 0.000522132 
0.1875 0.5625 0.0625 -0.0069883 0.000515961 0.00321546 
0.1875 0.5625 0.1875 0.0019637 -0.000210546 0.00289285 
0.1875 0.5625 0.3125 -0.00598234 -0.0019795 -0.000444931 
0.3125 0.4375 0.0625 0.00615541 -8.63663e-05 -0.000930417 
0.3125 0.4375 0.1875 0.000855629 -0.00194577 -0.000335972 
0.3125 0.4375 0.3125 -0.00287293 0.00167472 -0.000680808 
0.3125 0.5625 0.0625 -0.00053631 -0.00334071 0.00251963 
0.3125 0.5625 0.1875 0.00555852 -0.00209152 -0.00506732 
0.3125 0.5625 0.3125 -0.000523342 0.000382685 0.00351304 
0.4375 0.4375 0.0625 -0.00197319 -0.000573114 4.01812e-07 
0.4375 0.4375 0.1875 -0.00273128 -0.00434723 0.00449198 
0.4375 0.4375 0.3125 0.000545888 6.77204e-05 -0.0014776 
0.4375 0.5625 0.0625 0.00205869 0.00161235 -0.000718611 
0.4375 0.5625 0.1875 -0.00098605 0.000745218 6.57393e-05 
0.4375 0.5625 0.3125 0.00569125 -0.00460317 -0.00139764 
0.5625 0.4375 0.0625 -0.00117521 -0.00232962 -0.00141248 
0.5625 0.4375 0.1875 0.00394877 -0.00166993 0.000684685 
0.5625 0.4375 0.3125 -0.00480711 0.000844772 -0.00385232 
0.5625 0.5625 0.0625 0.00157753 0.00400551 -0.00116266 
0.5625 0.5625 0.1875 -0.000937972 -0.00406209 -0.00127732 
0.5625 0.5625 0.3125 -0.00310437 -0.0036091 -0.0033313 
0.6875 0.4375 0.0625 0.00115398 -0.00212673 -0.00547922 
0.6875 0.4375 0.1875 -0.00215795 0.00232812 -0.00194487 
0.6875 0.4375 0.3125 -0.0030027 0.00660602 0.000909264 
0.6875 0.5625 0.0625 -0.00605631 0.00259823 0.00257058 
0.6875 0.5625 0.1875 0.00161445 0.00119018 0.00153436 
0.6875 0.5625 0.3125 0.00238312 0.00381663 -0.000260016 
0.8125 0.4375 0.0625 -0.00191022 0.00111268 -0.00219166 
0.8125 0.4375 0.1875 0.000401496 -0.00165113 0.00070597 
0.8125 0.4375 0.3125 0.00663324 0.00297513 0.00472477 
0.8125 0.5625 0.0625 -0.00172332 0.000769713 -0.000880486 
0.8125 0.5625 0.1875 -1.06064e-05 -0.00059779 0.00274536 
0.8125 0.5625 0.3125 0.00123862 0.00160387 -0.0021751 
0.9375 0.4375 0.0625 -0.00410003 0.00115676 0.000412464 
0.9375 0.4375 0.1875 -0.00118513 -0.00562158 -0.0040055 
0.9375 0.4375 0.3125 -0.00220731 0.000329428 0.00435751 
0.9375 0.5625 0.0625 0.00402293 0.000434181 0.00397008 
0.9375 0.5625 0.1875 -0.0013416 0.0015303 0.0040269 
0.9375 0.5625 0.3125 -6.96088e-05 0.0078362 0.0118468 
0.0625 0.6875 0.0625 -0.00747191 -0.000274781 -0.00248431 
0.0625 0.6875 0.1875 -0.00401072 -0.00363397 -0.00486847 
0.0625 0.6875 0.3125 -0.00361581 -0.00420176 0.00125891 
0.0625 0.8125 0.0625 -0.000972987 1.81863e-05 -0.00316759 
0.0625 0.8125 0.1875 0.000681218 -0.00373916 0.000312351 
0.0625 0.8125 0.3125 -0.00163258 0.00232782 -0.00147219 
0.0625 0.9375 0.0625 -0.00358311 -0.00494249 0.00234179 
0.0625 0.9375 0.1875 -0.00128622 0.00607123 -0.000427197 
0.0625 0.9375 0.3125 -0.0021122 0.000309311 0.00510249 
0.1875 0.6875 0.0625 -0.0022677 0.00358493 0.00652478 
0.1875 0.6875 0.1875 -0.00411193 -0.00372668 0.00224762 
0.1875 0.6875 0.3125 0.0022813 0.00346446 -0.00107004 
0.1875 0.8125 0.0625 0.00356308 0.00240956 0.00454937 
0.1875 0.8125 0.1875 0.00169873 0.00222629 -0.00356311 
0.1875 0.8125 0.3125 -0.00521366 -0.00387213 0.000975951 
0.1875 0.9375 0.0625 0.000706852 0.00323275 0.00524919 
0.1875 0.9375 0.1875 0.00867628 -0.00361957 0.000218406 
0.1875 0.9375 0.3125 0.00218777 0.00196004 -0.00462597 
0.3125 0.6875 0.0625 0.00383858 -0.0029459 -0.00207164 
0.3125 0.6875 0.1875 0.00510618 0.00289587 0.00124295 
0.3125 0.6875 0.3125 0.00398938 0.000862215 0.000956674 
0.3125 0.8125 0.0625 -0.00133657 0.00061955 0.000724525 
0.3125 0.8125 0.1875 0.000223723 -0.00306031 0.00425909 
0.3125 0.8125 0.3125 -0.00012706 0.000876635 0.000532697 
0.3125 0.9375 0.0625 0.00449986 0.00199776 -0.00631355 
0.3125 0.9375 0.1875 -0.000517789 -0.00105083 0.000690992 
0.3125 0.9375 0.3125 0.00103142 0.00581284 -0.00211602 
0.4375 0.6875 0.0625 -0.00176656 -0.00128834 0.00693563 
0.4375 0.6875 0.1875 -0.000673183 -0.000342996 -0.00416538 
0.4375 0.6875 0.3125 0.000993404 -0.000940605 0.00172791 
0.4375 0.8125 0.0625 -0.000255363 -0.000628339 0.00267373 
0.4375 0.8125 0.1875 -0.00286469 0.000291296 -0.000122011 
0.4375 0.8125 0.3125 -0.00284103 -0.000130905 0.0024116 
0.4375 0.9375 0.0625 0.004214 0.000216422 0.000626912 
0.4375 0.9375 0.1875 0.000949022 -0.0027483 -0.00333156 
0.4375 0.9375 0.3125 -0.00026575 0.000210717 0.00227744 
0.5625 0.6875 0.0625 -0.00122214 -0.00240714 -0.00193856 
0.5625 0.6875 0.1875 0.00191305 0.00304551 -0.00177387 
0.5625 0.6875 0.3125 0.00430034 -0.00110287 -0.000357233 
0.5625 0.8125 0.0625 -0.000474318 -1.40636e-05 -0.00216132 
0.5625 0.8125 0.1875 0.00750082 -0.00303915 0.00418148 
0.5625 0.8125 0.3125 0.00172826 0.00294671 0.0012164 
0.5625 0.9375 0.0625 0.00393292 -0.000338854 0.00370081 
0.5625 0.9375 0.1875 -0.00233759 0.0027121 -0.000329057 
0.5625 0.9375 0.3125 -0.00163957 -0.000313053 0.000472069 
0.6875 0.6875 0.0625 -0.00403067 0.00307195 0.000325161 
0.6875 0.6875 0.1875 0.00259338 0.000377628 0.00143198 
0.6875 0.6875 0.3125 -0.00145003 0.00063048 -0.00324243 
0.6875 0.8125 0.0625 0.0036352 0.00106846 -0.0019721 
0.6875 0.8125 0.1875 -0.000614898 -0.003985 -0.00290583 
0.6875 0.8125 0.3125 -0.00194769 -0.00255729 0.0038468 
0.6875 0.9375 0.0625 -0.00114287 -0.00329424 -0.00153252 
0.6875 0.9375 0.1875 0.000489583 0.0013008 0.00532145 
0.6875 0.9375 0.3125 0.00139348 -0.00238703 0.000541775 
0.8125 0.6875 0.0625 -0.0059643 -0.000360986 0.00306667 
0.8125 0.6875 0.1875 0.00408457 -0.0021601 -0.000505808 
0.8125 0.6875 0.3125 -0.0012668 -0.00470059 -3.93939e-05 
0.8125 0.8125 0.0625 0.00136587 -0.00198742 -0.00189663 
0.8125 0.8125 0.1875 0.000611296 0.00387944 -0.000869004 
0.8125 0.8125 0.3125 -0.000428654 0.00445066 -0.00115161 
0.8125 0.9375 0.0625 0.00190582 -0.00372627 0.00502352 
0.8125 0.9375 0.1875 -0.000762474 -0.000407998 -0.000700069 
0.8125 0.9375 0.3125 -0.000254372 0.00372306 0.00247842 
0.9375 0.6875 0.0625 -0.00109375 -0.00428711 -0.000635302 
0.9375 0.6875 0.1875 0.00254546 -0.000168701 -0.00160318 
0.9375 0.6875 0.3125 -0.000571006 -0.00469193 -0.00116612 
0.9375 0.8125 0.0625 -0.00425871 0.00179892 -0.00284613 
0.9375 0.8125 0.1875 0.00622897 -0.00230419 0.00348716 
0.9375 0.8125 0.3125 -0.00506641 0.00252149 -0.000838699 
0.9375 0.9375 0.0625 0.000218244 -0.000149654 0.000891819 
0.9375 0.9375 0.1875 -0.00508907 0.0014683 0.00603419 
0.9375 0.9375 0.3125 0.00340467 -0.00373804 -0.00242655 
0.0625 0.0625 0.4375 0.00286374 -0.00244818 -0.00264541 
0.0625 0.0625 0.5625 -0.00167547 -0.00247062 0.00325855 
0.0625 0.1875 0.4375 -0.000520962 -0.00301358 0.00035806 
0.0625 0.1875 0.5625 -0.00660361 -0.00155908 0.000180566 
0.0625 0.3125 0.4375 0.00281978 0.00227384 0.000938974 
0.0625 0.3125 0.5625 -0.00658336 -0.00350847 -4.90554e-05 
0.1875 0.0625 0.4375 -0.00105622 3.00841e-05 0.00146045 
0.1875 0.0625 0.5625 0.00316716 -2.21402e-05 0.00927033 
0.1875 0.1875 0.4375 0.000557551 0.00233579 0.00157693 
0.1875 0.1875 0.5625 -0.000330247 -0.00296495 -0.000264849 
0.1875 0.3125 0.4375 -0.00365046 0.000862629 -0.0023867 
0.1875 0.3125 0.5625 -0.00306195 -0.00089057 -0.00749524 
0.3125 0.0625 0.4375 -0.00226239 0.000110023 0.000317008 
0.3125 0.0625 0.5625 0.00138878 -0.00325063 0.0004216 
0.3125 0.1875 0.4375 -0.00175596 -0.000424047 0.00137687 
0.3125 0.1875 0.5625 -0.00153563 0.00216637 0.00458894 
0.3125 0.3125 0.4375 0.00502696 -0.000810211 -0.00696795 
0.3125 0.3125 0.5625 0.00160377 0.00216931 0.00290787 
0.4375 0.0625 0.4375 0.00071584 0.00254268 -0.000561957 
0.4375 0.0625 0.5625 -0.00264781 -0.00077156 0.0010714 
0.4375 0.1875 0.4375 -0.00178082 -0.00655397 0.0079732 
0.4375 0.1875 0.5625 0.00341476 -0.000213124 0.000864014 
0.4375 0.3125 0.4375 0.00164349 0.00181859 -0.00244658 
0.4375 0.3125 0.5625 0.00335714 0.00119896 -0.00326412 
0.5625 0.0625 0.4375 0.00630859 0.000663831 0.00302124 
0.5625 0.0625 0.5625 0.00701265 0.000524454 0.00560703 
0.5625 0.1875 0.4375 -0.00157597 -0.0017902 -0.00166148 
0.5625 0.1875 0.5625 0.00692978 -0.00410693 -0.00264025 
0.5625 0.3125 0.4375 -0.000233175 0.00288057 -0.000165375 
0.5625 0.3125 0.5625 -0.00372723 0.00175198 0.000260458 
0.6875 0.0625 0.4375 -0.00466812 -0.00196397 -0.000147051 
0.6875 0.0625 0.5625 0.00554359 -0.00117855 0.000115405 
0.6875 0.1875 0.4375 -0.00168926 0.00274866 -0.00395664 
0.6875 0.1875 0.5625 0.000473374 -0.00202793 0.000831718 
0.6875 0.3125 0.4375 -5.86543e-06 0.00208237 -0.00549344 
0.6875 0.3125 0.5625 0.00172868 0.00323771 -0.00204035 
0.8125 0.0625 0.4375 -0.00912138 -0.00189642 0.00248488 
0.8125 0.0625 0.5625 0.00188173 0.00200193 0.00194811 
0.8125 0.1875 0.4375 0.00259917 0.000498491 -0.00201723 
0.8125 0.1875 0.5625 0.00646882 -0.00208404 -0.0016243 
0.8125 0.3125 0.4375 0.0023531 -0.00357562 0.00182319 
0.8125 0.3125 0.5625 -0.00515498 -0.000637573 -0.00345757 
0.9375 0.0625 0.4375 0.000719141 0.00240418 -0.000540799 
0.9375 0.0625 0.5625 -0.0023547 0.00294966 0.00307522 
0.9375 0.1875 0.4375 0.00332659 -0.00178077 0.000674526 
0.9375 0.1875 0.5625 -0.000979216 -0.00279904 0.00168353 
0.9375 0.3125 0.4375 -0.00060539 0.00171269 -0.00185549 
0.9375 0.3125 0.5625 0.00509818 -0.00860157 0.00513643 
0.0625 0.4375 0.4375 0.00407349 0.00212499 -7.86747e-05 
0.0625 0.4375 0.5625 -0.000654712 -0.00317028 -0.00216706 
0.0625 0.5625 0.4375 -0.00465072 0.00340868 -0.004887 
0.0625 0.5625 0.5625 -0.00170689 -0.0022011 0.000676375 
0.1875 0.4375 0.4375 0.00349448 0.00537866 0.000275758 
0.1875 0.4375 0.5625 -0.00247289 0.00280881 0.00561778 
0.1875 0.5625 0.4375 -0.00295834 0.00132144 0.00310862 
0.1875 0.5625 0.5625 -0.000608906 0.000167808 0.000442228 
0.3125 0.4375 0.4375 -0.00120744 0.001283 -0.000648119 
0.3125 0.4375 0.5625 -0.0054186 -0.00268861 -0.00139631 
0.3125 0.5625 0.4375 0.000164468 0.00128488 0.00654423 
0.3125 0.5625 0.5625 0.000714112 0.00123123 -0.00366548 
0.4375 0.4375 0.4375 -0.00190639 0.000606803 -0.00065512 
0.4375 0.4375 0.5625 7.74185e-05 0.00429663 -0.000247032 
0.4375 0.5625 0.4375 -0.00147546 -0.0005546 -0.00169349 
0.4375 0.5625 0.5625 -0.000495622 0.00138122 -0.00323456 
0.5625 0.4375 0.4375 0.00194893 0.00236726 -0.000205942 
0.5625 0.4375 0.5625 -0.00186853 -0.00173921 -0.00444996 
0.5625 0.5625 0.4375 -0.0050789 0.0030466 0.00153288 
0.5625 0.5625 0.5625 -0.00188098 -0.00042045 0.00018571 
0.6875 0.4375 0.4375 -0.00410583 0.002926 -0.00762055 
0.6875 0.4375 0.5625 0.00348311 0.00641364 -0.00211936 
0.6875 0.5625 0.4375 -0.00190042 0.00296084 0.00163965 
0.6875 0.5625 0.5625 0.00126122 0.00254355 -0.00295866 
0.8125 0.4375 0.4375 -0.00169686 -0.000582672 0.00293847 
0.8125 0.4375 0.5625 0.000195355 -3.22472e-05 -0.00289264 
0.8125 0.5625 0.4375 0.00422805 0.00258301 -0.0011815 
0.8125 0.5625 0.5625 -3.8818e-05 -0.00462625 0.000725546 
0.9375 0.4375 0.4375 0.00195664 -0.00140478 -0.0011206 
0.9375 0.4375 0.5625 -0.000666034 0.00299659 0.0012169 
0.9375 0.5625 0.4375 0.00632691 3.19725e-05 0.00219518 
0.9375 0.5625 0.5625 -0.00448949 0.000981335 0.000499529 
0.0625 0.6875 0.4375 -0.00134804 -8.57927e-05 0.000159326 
0.0625 0.6875 0.5625 0.00180097 -0.00676994 0.001194 
0.0625 0.8125 0.4375 -0.00359798 -0.00152922 0.00528665 
0.0625 0.8125 0.5625 0.000379032 0.00163896 0.0058199 
0.0625 0.9375 0.4375 0.00308352 0.00122631 -0.000865534 
0.0625 0.9375 0.5625 0.00574014 -0.000745233 0.000419102 
0.1875 0.6875 0.4375 -0.00145228 -0.00143857 0.0038061 
0.1875 0.6875 0.5625 -0.000712711 0.00236938 -0.00296824 
0.1875 0.8125 0.4375 0.00271464 -0.00220026 -0.00284152 
0.1875 0.8125 0.5625 -0.00182599 -0.00785677 0.00180633 
0.1875 0.9375 0.4375 0.000754919 0.00437223 0.00111164 
0.1875 0.9375 0.5625 0.00140772 -0.0018664 0.000491446 
0.3125 0.6875 0.4375 0.00446967 0.00630844 -0.00161117 
0.3125 0.6875 0.5625 -0.0015196 0.00565531 -0.000258673 
0.3125 0.8125 0.4375 -0.00426344 0.000400599 0.000425958 
0.3125 0.8125 0.5625 -0.00286114 0.00304324 0.000500322 
0.3125 0.9375 0.4375 -0.000520535 -0.00239828 0.0034896 
0.3125 0.9375 0.5625 -0.00641867 -0.00784538 0.000317793 
0.4375 0.6875 0.4375 -0.000745514 -0.0027049 0.00610686 
0.4375 0.6875 0.5625 0.00321027 -0.00249658 -0.00270809 
0.4375 0.8125 0.4375 -0.00300844 0.000561859 0.00362378 
0.4375 0.8125 0.5625 -0.00775507 -0.00103542 -0.00316829 
0.4375 0.9375 0.4375 -0.00243086 -0.00986637 0.000204452 
0.4375 0.9375 0.5625 0.00405976 -0.00299226 -0.00432644 
0.5625 0.6875 0.4375 0.00705667 -0.00187818 0.000308852 
0.5625 0.6875 0.5625 -0.00182091 0.00488515 0.000236707 
0.5625 0.8125 0.4375 0.00402835 -0.00345693 -0.0028613 
0.5625 0.8125 0.5625 0.00402265 0.00412578 0.00466784 
0.5625 0.9375 0.4375 0.00250204 0.00198001 0.00559922 
0.5625 0.9375 0.5625 -0.00184538 0.00162338 -0.00531207 
0.6875 0.6875 0.4375 -0.0041248 -6.11771e-05 0.00233728 
0.6875 0.6875 0.5625 0.00146765 0.00480544 -0.00163334 
0.6875 0.8125 0.4375 -0.00267356 0.000780177 0.00200329 
0.6875 0.8125 0.5625 -0.00139707 -0.00837014 -0.00131843 
0.6875 0.9375 0.4375 0.00218546 0.000806648 -0.00381367 
0.6875 0.9375 0.5625 -0.00500345 -0.000573384 -0.00158076 
0.8125 0.6875 0.4375 -0.00325718 -0.00592554 0.00122646 
0.8125 0.6875 0.5625 -0.00053599 0.00508296 -0.00104606 
0.8125 0.8125 0.4375 0.0061272 -0.00397403 0.0028458 
0.8125 0.8125 0.5625 -0.00299091 0.00157503 -0.00101257 
0.8125 0.9375 0.4375 -0.000756864 0.00205091 0.00129539 
0.8125 0.9375 0.5625 0.00109853 -0.00110244 -1.55586e-05 
0.9375 0.6875 0.4375 0.00734994 0.000189402 0.00177212 
0.9375 0.6875 0.5625 -0.00294966 0.000373603 0.000267972 
0.9375 0.8125 0.4375 0.00181051 -0.00120391 -0.000930452 
0.9375 0.8125 0.5625 0.00054124 0.00363488 0.00152865 
0.9375 0.9375 0.4375 -0.00332318 -0.000994606 0.00576015 
0.9375 0.9375 0.5625 0.0013865 0.00523319 -0.000218481 
0.0625 0.0625 0.6875 0.000240842 -0.000882264 0.000641852 
0.0625 0.0625 0.8125 -0.00303462 0.000436189 -0.000236813 
0.0625 0.0625 0.9375 0.00355193 -0.00836941 -0.00469328 
0.0625 0.1875 0.6875 0.000693629 0.00483563 -0.0014494 
0.0625 0.1875 0.8125 0.000517953 -0.00428957 -0.00285822 
0.0625 0.1875 0.9375 0.00425084 0.00433652 -0.000960567 
0.0625 0.3125 0.6875 0.00264041 0.00145968 0.00116215 
0.0625 0.3125 0.8125 0.00097377 0.00444217 0.000447082 
0.0625 0.3125 0.9375 0.00421858 -0.00338323 -0.00416416 
0.1875 0.0625 0.6875 -0.00312577 0.00293823 -0.00596957 
0.1875 0.0625 0.8125 0.00282833 0.0059492 -0.00308444 
0.1875 0.0625 0.9375 0.000680914 0.00179683 0.00161847 
0.1875 0.1875 0.6875 -0.00103498 -0.00135636 -0.0050519 
0.1875 0.1875 0.8125 0.00235541 0.00263464 -0.0010381 
0.1875 0.1875 0.9375 -0.00512547 0.00180488 0.00417911 
0.1875 0.3125 0.6875 0.00183411 0.00186659 -0.000321421 
0.1875 0.3125 0.8125 0.00290054 -0.00347408 0.000406117 
0.1875 0.3125 0.9375 0.00316158 -0.00249997 -0.00068748 
0.3125 0.0625 0.6875 0.00475545 -0.00371881 0.00370214 
0.3125 0.0625 0.8125 -0.00340885 0.00471709 0.000623976 
0.3125 0.0625 0.9375 0.00269706 0.00432303 -0.000761477 
0.3125 0.1875 0.6875 0.000472777 0.00418691 -0.00124661 
0.3125 0.1875 0.8125 -0.0017415 0.000377433 0.00363641 
0.3125 0.1875 0.9375 0.00120831 -0.00233134 0.00196004 
0.3125 0.3125 0.6875 0.00114251 -0.000935688 -0.00322283 
0.3125 0.3125 0.8125 -0.00340659 -0.00240719 -0.0036066 
0.3125 0.3125 0.9375 -0.00106039 -0.00257797 0.00116454 
0.4375 0.0625 0.6875 0.00198717 -0.000528242 0.00629847 
0.4375 0.0625 0.8125 0.00131161 -0.00299585 -0.00661704 
0.4375 0.0625 0.9375 0.00220225 -0.00174095 -0.00260003 
0.4375 0.1875 0.6875 -0.000820646 -0.0018351 -0.000646757 
0.4375 0.1875 0.8125 0.000130551 -0.00639912 0.00296811 
0.4375 0.1875 0.9375 -0.00436258 0.00433169 -0.000928298 
0.4375 0.3125 0.6875 -0.00136523 -0.000237927 -0.000530227 
0.4375 0.3125 0.8125 0.000601035 0.000333588 0.00178072 
0.4375 0.3125 0.9375 -0.00300933 0.00573725 0.000831317 
0.5625 0.0625 0.6875 0.00299729 -0.00359663 -0.000238559 
0.5625 0.0625 0.8125 0.000649383 -0.000194543 8.95111e-05 
0.5625 0.0625 0.9375 -0.003249 -0.00177622 -0.000498106 
0.5625 0.1875 0.6875 -0.000596531 -0.000916624 -0.00222792 
0.5625 0.1875 0.8125 0.000787012 0.000480869 0.00476361 
0.5625 0.1875 0.9375 0.000925685 0.000141006 -0.00384726 
0.5625 0.3125 0.6875 0.00264941 -0.00111297 -0.00491286 
0.5625 0.3125 0.8125 -0.00196548 0.00216242 -0.002912 
0.5625 0.3125 0.9375 -0.00509954 0.00232429 -0.00128167 
0.6875 0.0625 0.6875 0.000944969 0.000848405 0.00121804 
0.6875 0.0625 0.8125 0.00418391 0.00142853 -0.00351528 
0.6875 0.0625 0.9375 -0.00218688 -0.00405296 -0.00103043 
0.6875 0.1875 0.6875 0.00149347 0.00483095 0.00125414 
0.6875 0.1875 0.8125 0.00380023 -0.0015746 -0.00222714 
0.6875 0.1875 0.9375 0.0019022 -0.000902642 -0.00163235 
0.6875 0.3125 0.6875 -0.00367675 -0.00215336 0.0022652 
0.6875 0.3125 0.8125 -0.00685289 0.00228219 -0.00120939 
0.6875 0.3125 0.9375 -0.000973196 -0.00207981 -0.00408189 
0.8125 0.0625 0.6875 0.00216399 -0.000636913 0.00551069 
0.8125 0.0625 0.8125 -0.00156734 0.000727311 0.00315472 
0.8125 0.0625 0.9375 -0.00143281 -0.000454721 0.000307583 
0.8125 0.1875 0.6875 0.00043904 -0.00127086 0.00155813 
0.8125 0.1875 0.8125 -0.00320373 -0.00125547 0.00135183 
0.8125 0.1875 0.9375 0.000306707 0.00213157 -0.000610676 
0.8125 0.3125 0.6875 0.00249975 -0.00324496 0.00256787 
0.8125 0.3125 0.8125 0.00118863 -0.000376451 -0.00564517 
0.8125 0.3125 0.9375 0.00170659 0.00216437 0.00250296 
0.9375 0.0625 0.6875 -0.00421717 0.000663211 -0.000967519 
0.9375 0.0625 0.8125 -0.0028329 0.00450612 -0.00668375 
0.9375 0.0625 0.9375 -0.00556912 -0.00111647 0.00402318 
0.9375 0.1875 0.6875 0.000638154 -0.000264941 0.00285201 
0.9375 0.1875 0.8125 0.000783031 0.00247018 -0.00148945 
0.9375 0.1875 0.9375 -1.0218e-05 -0.00285894 -0.00532367 
0.9375 0.3125 0.6875 0.00178373 0.00164346 0.000799078 
0.9375 0.3125 0.8125 -0.00258508 0.00270567 -0.0012894 
0.9375 0.3125 0.9375 0.0004883 0.00137151 -0.00096106 
0.0625 0.4375 0.6875 -0.00435608 -0.00165921 -0.00332679 
0.0625 0.4375 0.8125 0.00108649 0.000654047 9.55293e-05 
0.0625 0.4375 0.9375 -0.000985879 0.000453306 0.00364204 
0.0625 0.5625 0.6875 0.00701428 -0.00116214 0.00119706 
0.0625 0.5625 0.8125 -0.0031963 -0.00152975 -0.002102 
0.0625 0.5625 0.9375 -0.00166073 0.00176394 0.00863105 
0.1875 0.4375 0.6875 0.00119949 -0.00141308 -0.00429161 
0.1875 0.4375 0.8125 0.00468776 0.00401627 0.00257233 
0.1875 0.4375 0.9375 -0.00381157 -0.000579427 -0.00703937 
0.1875 0.5625 0.6875 0.00192532 0.00178986 -0.00190226 
0.1875 0.5625 0.8125 -0.0025761 -0.00672508 0.00182426 
0.1875 0.5625 0.9375 -0.000502333 0.00222785 0.00303513 
0.3125 0.4375 0.6875 0.00363655 -0.00242928 0.00107082 
0.3125 0.4375 0.8125 0.000267965 0.000302527 0.00745851 
0.3125 0.4375 0.9375 -0.0015369 0.00426927 -0.00121491 
0.3125 0.5625 0.6875 -0.000974625 0.00422119 0.00141207 
0.3125 0.5625 0.8125 0.00412405 0.00159825 0.00435535 
0.3125 0.5625 0.9375 -0.00336435 0.00485635 -0.00114405 
0.4375 0.4375 0.6875 -0.00130149 -0.00330634 0.00135335 
0.4375 0.4375 0.8125 -0.000919239 0.00187403 0.00313783 
0.4375 0.4375 0.9375 0.00434062 -0.000589521 0.00321471 
0.4375 0.5625 0.6875 0.000846957 -0.00392631 0.00392389 
0.4375 0.5625 0.8125 -0.000399918 0.000416371 6.92274e-05 
0.4375 0.5625 0.9375 -0.000725288 -0.00419904 -0.00083957 
0.5625 0.4375 0.6875 0.00116205 0.00543434 -0.00171924 
0.5625 0.4375 0.8125 -0.000303361 0.00199381 -0.00249102 
0.5625 0.4375 0.9375 0.00177345 -0.000183674 0.000507079 
0.5625 0.5625 0.6875 0.00225601 -0.000316581 0.00400087 
0.5625 0.5625 0.8125 -0.000951804 -0.000310757 -0.00336234 
0.5625 0.5625 0.9375 -0.000577693 -0.00280815 -0.00321982 
0.6875 0.4375 0.6875 -0.00163317 0.000206825 0.000114099 
0.6875 0.4375 0.8125 2.35742e-05 -0.00172258 -2.22349e-05 
0.6875 0.4375 0.9375 0.00286765 -0.00110244 -0.00137672 
0.6875 0.5625 0.6875 0.00367006 0.00130382 0.00323191 
0.6875 0.5625 0.8125 0.00942649 -0.00148737 0.00443856 
0.6875 0.5625 0.9375 0.00336125 0.00173131 0.00294148 
0.8125 0.4375 0.6875 -0.001615 0.00117431 -0.000779539 
0.8125 0.4375 0.8125 -0.00260562 -0.00296522 0.00520201 
0.8125 0.4375 0.9375 0.000520093 -0.0013616 0.000514275 
0.8125 0.5625 0.6875 -0.00264406 0.00565604 -0.00300827 
0.8125 0.5625 0.8125 0.00182025 0.000642381 -0.00204933 
0.8125 0.5625 0.9375 -0.00228132 -0.000833955 0.00362436 
0.9375 0.4375 0.6875 0.00482281 -0.00420117 0.00258151 
0.9375 0.4375 0.8125 -0.00119081 0.00216838 0.00432632 
0.9375 0.4375 0.9375 0.00314362 0.000315194 -0.000955432 
0.9375 0.5625 0.6875 -0.00189579 0.0013143 -0.00390573 
0.9375 0.5625 0.8125 0.00126626 0.00473562 0.000397423 
0.9375 0.5625 0.9375 -0.00525395 -0.00185833 -0.00506178 
0.0625 0.6875 0.6875 -0.000556059 -0.0015456 0.00210405 
0.0625 0.6875 0.8125 -0.00456138 0.000284085 0.000953839 
0.0625 0.6875 0.9375 0.000816973 0.00401064 0.00309502 
0.0625 0.8125 0.6875 -0.00227503 0.000123558 0.00266539 
0.0625 0.8125 0.8125 -0.00210384 -8.62611e-05 -0.00140526 
0.0625 0.8125 0.9375 0.00165697 0.00647049 0.00456111 
0.0625 0.9375 0.6875 0.00162496 0.000488473 -0.000733034 
0.0625 0.9375 0.8125 0.000115689 -0.00777778 -0.0041856 
0.0625 0.9375 0.9375 -0.00379822 0.000650298 0.000834554 
0.1875 0.6875 0.6875 -0.00277597 0.00497529 0.00128612 
0.1875 0.6875 0.8125 0.00117487 0.00102324 -0.00135682 
0.1875 0.6875 0.9375 -0.000474785 -0.00197127 -0.00328662 
0.1875 0.8125 0.6875 -0.000959602 -0.00204068 0.00315356 
0.1875 0.8125 0.8125 -0.00217625 -0.00275034 0.0028394 
0.1875 0.8125 0.9375 0.000719454 -0.00338458 -0.00555605 
0.1875 0.9375 0.6875 0.000551198 -0.00200882 -0.00448281 
0.1875 0.9375 0.8125 -0.000451004 -0.000517947 0.00313872 
0.1875 0.9375 0.9375 -0.000118006 -0.00148501 0.00133888 
0.3125 0.6875 0.6875 -0.000475783 -0.00231872 0.0012574 
0.3125 0.6875 0.8125 0.00384309 0.00351646 0.0113082 
0.3125 0.6875 0.9375 -0.00118898 -0.0013414 0.00461754 
0.3125 0.8125 0.6875 0.00150062 0.00159567 0.00136064 
0.3125 0.8125 0.8125 0.0010224 -0.000493878 -0.00371105 
0.3125 0.8125 0.9375 0.00245136 0.00408777 -0.00105935 
0.3125 0.9375 0.6875 -0.00482814 0.00069346 -0.00131819 
0.3125 0.9375 0.8125 -0.00165683 -0.00544514 -0.00645623 
0.3125 0.9375 0.9375 0.0049778 -0.00289622 -0.0022198 
0.4375 0.6875 0.6875 -0.000897893 -0.000775441 0.000967889 
0.4375 0.6875 0.8125 0.000423575 -0.00223917 -0.000821821 
0.4375 0.6875 0.9375 -0.000276174 -0.000917781 0.00136746 
0.4375 0.8125 0.6875 0.000573887 -0.00462499 -0.00604679 
0.4375 0.8125 0.8125 -0.00401397 0.00157005 0.00468497 
0.4375 0.8125 0.9375 -0.00184549 0.00518881 0.00110686 
0.4375 0.9375 0.6875 -0.00177335 -0.0081586 0.000487688 
0.4375 0.9375 0.8125 0.00491031 -0.00253585 0.00227234 
0.4375 0.9375 0.9375 -0.00194397 -0.00296782 0.00208029 
0.5625 0.6875 0.6875 0.000838073 0.00150491 0.000768866 
0.5625 0.6875 0.8125 -0.000439486 0.00347619 0.00568995 
0.5625 0.6875 0.9375 -0.00492796 0.00160169 -0.0015259 
0.5625 0.8125 0.6875 0.00234544 -0.000680097 0.00110138 
0.5625 0.8125 0.8125 -0.00452577 0.00113862 0.00241648 
0.5625 0.8125 0.9375 0.00553288 0.0084701 0.00735275 
0.5625 0.9375 0.6875 0.000544221 -0.00264096 -0.000238155 
0.5625 0.9375 0.8125 -0.00462303 -0.00392028 0.00282071 
0.5625 0.9375 0.9375 0.000398121 -0.00348284 -0.000613816 
0.6875 0.6875 0.6875 -0.000108254 0.000707787 -0.0047168 
0.6875 0.6875 0.8125 0.00285587 0.000342547 0.00205224 
0.6875 0.6875 0.9375 -0.0032644 0.00172405 0.00408194 
0.6875 0.8125 0.6875 -0.000369861 0.00305014 -0.00210424 
0.6875 0.8125 0.8125 0.0061486 0.00429231 0.00269769 
0.6875 0.8125 0.9375 4.61685e-05 0.0046662 0.0016591 
0.6875 0.9375 0.6875 -0.00213412 -0.00102088 -0.00507365 
0.6875 0.9375 0.8125 -0.00140883 -0.00305335 -0.00154527 
0.6875 0.9375 0.9375 0.00015773 0.00149201 0.00393816 
0.8125 0.6875 0.6875 0.00170793 0.00285606 -0.00186884 
0.8125 0.6875 0.8125 -0.00312196 -0.00339669 -0.00439936 
0.8125 0.6875 0.9375 -0.00112418 0.000742151 0.000718726 
0.8125 0.8125 0.6875 0.00726332 -0.00125938 -0.00159784 
0.8125 0.8125 0.8125 0.00165899 -0.00223408 -0.0039194 
0.8125 0.8125 0.9375 0.000566427 0.0106791 -0.00109337 
0.8125 0.9375 0.6875 0.00255975 0.000975664 -0.00171438 
0.8125 0.9375 0.8125 0.00520007 0.00268337 0.00257384 
0.8125 0.9375 0.9375 0.00109471 0.00189525 -0.000940738 
0.9375 0.6875 0.6875 0.00232958 0.000562264 -0.000945127 
0.9375 0.6875 0.8125 -0.000987786 0.00131228 -0.00321221 
0.9375 0.6875 0.9375 0.00488313 -0.00330533 -0.000388876 
0.9375 0.8125 0.6875 0.000953904 -0.00288978 -0.00284232 
0.9375 0.8125 0.8125 0.00285288 0.00246075 -0.00197826 
0.9375 0.8125 0.9375 -0.00158507 0.00276627 -4.47231e-05 
0.9375 0.9375 0.6875 0.00416147 0.00281233 -0.00463506 
0.9375 0.9375 0.8125 -0.000154774 0.00462529 0.00169995 
0.9375 0.9375 0.9375 0.000868073 -0.00660572 -0.001193 
ITEM: TIMESTEP
100
ITEM: NUMBER OF ATOMS
512
ITEM: BOX BOUNDS pp pp pp
-1.4100500000000000e+00 2.1150751000000000e+01
-1.4100500000000000e+00 2.1150751000000000e+01
-1.4100500000000000e+00 2.1150751000000000e+01
ITEM: ATOMS xs ys zs vx vy vz 
0.0607026 0.0619707 0.0532397 0.000887054 -0.00448912 0.00263684 
0.059265 0.0642165 0.185833 0.00148482 0.000607844 9.06087e-05 
0.0618889 0.0580499 0.314816 0.00132584 -0.000694233 0.000358691 
0.0593089 0.185248 0.0515652 -0.00234898 0.000424469 -0.000165451 
0.0641819 0.186302 0.179923 -0.00121929 0.000748043 0.000569355 