ITEM: TIMESTEP
0
ITEM: NUMBER OF ATOMS
1714
ITEM: BOX BOUNDS pp pp pp
50.9533 109.047
75.9533 134.047
75.9533 134.047
ITEM: ATOMS id mol type x y z ix iy iz 
973 36 2 56.0485 82.333 81.1896 2 1 2 
804 30 2 52.9898 77.5624 77.8969 2 3 -1 
873 32 2 57.6246 78.2099 78.6449 1 1 1 
460 17 2 51.6078 82.9609 78.7691 -1 -1 1 
1175 44 2 51.32 79.4459 82.9167 1 2 1 
470 17 2 58.5257 78.6573 83.2827 2 2 0 
1327 49 2 63.3393 79.5438 77.9359 2 1 -3 
522 19 2 63.3037 76.2608 84.8564 0 0 2 
190 7 2 61.0747 82.9345 83.3602 1 0 2 
946 35 2 65.6866 80.3826 82.3631 1 -1 1 
272 10 2 70.1605 79.6465 79.6124 -2 1 1 
224 8 2 69.8507 78.0425 85.1094 -2 1 1 
1402 52 2 74.5535 80.5832 83.5271 -1 2 -1 
1488 55 2 78.0455 77.198 84.3483 0 1 1 
262 10 2 78.8292 82.7952 81.7751 1 2 0 
1507 56 2 75.2008 81.4325 78.1463 1 -1 1 
1059 39 2 79.9042 77.3458 78.9618 -1 0 1 
647 24 2 74.6825 76.5717 79.0473 2 -2 0 
528 20 2 58.1605 87.0918 82.9387 -1 0 1 
1515 56 2 55.4008 87.0086 78.6859 0 1 -1 
983 36 2 52.9991 85.9428 83.3324 0 0 -1 
217 8 2 59.6178 83.7513 77.6415 -1 2 -1 
339 13 2 61.5043 87.4557 79.8779 0 -1 0 
903 33 2 65.3718 84.0033 79.0974 0 0 1 
1513 56 2 62.7644 90.475 84.1371 1 -1 0 
627 23 2 69.7653 83.3415 83.2332 1 3 0 
1036 38 2 65.4884 85.4833 84.0584 0 0 0 
1105 41 2 66.3475 88.4811 80.2164 0 0 -1 
1151 43 2 70.4315 85.1313 77.9403 0 -1 1 
1564 58 2 70.0302 88.9244 83.5563 0 0 0 
1376 51 2 77.2771 86.2188 76.3579 2 1 1 
52 2 2 72.9348 90.3664 80.2806 0 0 -1 
1610 60 2 74.5538 85.7988 80.9744 1 0 2 
830 31 2 79.0753 87.5134 80.9974 0 2 2 
1134 42 2 76.1338 90.2266 84.3137 2 -1 -1 
1491 55 2 54.0304 91.5071 81.5837 1 1 3 
1121 42 2 55.1815 95.1881 78.3964 0 0 -2 
1393 52 2 52.2623 90.8061 76.7445 -1 -1 0 
1190 44 2 58.7354 91.2404 79.8858 1 0 0 
527 20 2 60.0357 94.3998 83.5837 1 0 1 
1361 50 2 63.9183 92.3578 76.652 2 -1 0 
1223 45 2 61.1543 96.3775 79.1972 2 1 1 
1231 46 2 67.292 92.9148 82.032 1 0 0 
1654 61 2 66.1234 96.3035 78.282 1 0 0 
350 13 2 71.2607 95.143 77.9971 2 0 0 
720 27 2 72.625 94.6751 83.3995 0 -1 1 
171 6 2 69.2221 90.6386 76.4016 -1 2 0 
1109 41 2 75.9092 94.0368 79.2948 -1 -1 1 
945 35 2 77.0358 96.4131 83.7606 -1 -1 0 
1091 40 2 54.5435 98.1545 82.9875 -1 0 0 
969 36 2 51.763 102.249 83.3595 0 -1 1 
518 19 2 52.668 100.065 78.8978 0 0 -1 
1374 51 2 57.606 101.137 80.3208 1 1 1 
1537 57 2 55.374 103.557 76.0063 1 0 0 
1021 38 2 62.2106 99.1582 83.8177 1 0 -1 
1615 60 2 63.7737 100.823 78.2339 1 0 0 
1586 59 2 61.7297 104.47 85.2607 1 0 2 
1022 38 2 66.0342 102.981 82.5411 0 2 2 
130 5 2 68.1574 98.5439 82.4935 -1 -1 1 
1150 43 2 71.044 103.907 84.3158 1 1 0 
729 27 2 69.7465 101.904 79.0299 -1 0 0 
525 19 2 74.9199 99.3128 76.4958 -1 -2 1 
1392 52 2 73.1574 98.9042 81.2061 1 -1 0 
1027 38 2 78.4521 100.285 80.0192 -1 1 0 
997 37 2 75.9982 102.082 84.3125 0 1 -1 
245 9 2 74.6154 104.079 79.7293 1 2 -1 
1551 57 2 79.0627 103.943 75.9777 0 0 2 
283 10 2 57.6886 76.3615 87.5034 -1 1 0 
1603 59 2 54.1993 78.6375 95.125 1 2 1 
1200 44 2 54.9608 80.6649 85.9599 2 0 0 
1016 38 2 54.8918 82.6993 91.8644 -1 -1 -1 
1369 51 2 53.5747 77.556 90.4003 0 0 0 
226 8 2 57.7897 76.0167 92.7271 -2 1 0 
229 8 2 62.0107 76.3871 89.6169 1 0 1 
1035 38 2 59.5248 80.5579 88.1826 2 -1 -2 
767 28 2 60.6231 79.9811 93.2432 -2 1 1 
652 24 2 65.712 78.7829 92.4738 2 1 -1 
306 11 2 66.9686 80.1601 88.09 -1 1 0 
899 33 2 72.1864 82.0025 88.0418 0 2 0 
900 33 2 69.4829 82.615 92.2934 2 2 0 
579 21 2 70.8313 77.5254 91.7658 1 2 -1 
1276 47 2 78.6182 81.3922 86.716 -1 1 0 
298 11 2 74.8972 77.5892 88.0314 0 -1 -1 
877 32 2 74.9793 80.0459 92.7153 0 3 0 
414 15 2 78.7473 76.9411 90.6387 0 -1 0 
442 16 2 56.6885 84.8016 87.456 -2 3 1 
1559 58 2 52.6926 89.458 88.2029 0 0 0 
1056 39 2 54.6722 86.4742 95.3007 -1 -1 0 
1367 51 2 56.7934 88.3853 90.7155 1 0 -2 
1659 61 2 64.5486 83.5528 90.8257 1 0 0 
203 8 2 59.3885 84.4959 91.902 1 2 0 
1293 48 2 61.527 86.7206 87.3356 -1 2 0 
623 23 2 62.5411 88.3557 92.2469 1 0 0 
727 27 2 68.5889 86.2032 88.1613 -2 0 1 
1637 61 2 67.5074 87.7974 93.0376 2 1 0 
86 3 2 72.4057 86.5962 92.5449 2 -1 0 
448 17 2 78.8871 86.5183 86.2879 -1 1 -1 
1326 49 2 73.4152 86.1172 85.9379 1 0 -1 
233 9 2 76.3117 84.5881 90.6135 0 1 1 
1315 49 2 76.0262 90.0745 94.4691 0 0 0 
1261 47 2 72.9768 90.2893 88.5586 0 1 2 
831 31 2 53.2242 94.2528 86.2592 0 0 -1 
55 2 2 57.0852 91.1041 85.8784 1 0 1 
1373 51 2 53.0653 90.8805 93.4404 1 0 0 
1401 52 2 55.1376 95.6732 91.7571 2 0 0 
842 31 2 57.6926 91.9657 93.9986 0 0 1 
1404 52 2 58.3446 96.8541 87.6998 1 0 -1 
274 10 2 64.1564 95.2868 86.0792 1 0 -1 
281 10 2 61.098 93.2076 89.8461 -1 1 -1 
1180 44 2 60.0827 96.4926 93.563 0 2 0 
535 20 2 67.0305 90.6399 87.6267 -1 0 0 
1074 40 2 71.3725 91.8614 92.7773 1 -1 0 
1688 63 2 65.6159 93.1077 91.9552 1 1 1 
501 19 2 69.124 95.2256 88.2423 2 0 0 
1445 54 2 69.786 96.4648 93.076 1 -1 1 
590 22 2 79.8851 94.8445 87.6983 -1 0 1 
237 9 2 77.6759 90.6196 89.2941 -2 -1 1 
1130 42 2 75.4719 95.6111 91.2081 0 0 -2 
575 21 2 57.6029 101.817 85.8532 2 -1 1 
1577 58 2 55.5916 104.556 93.3783 1 1 -1 
621 23 2 52.5529 99.5303 93.0654 1 -1 0 
556 21 2 53.1515 99.5087 87.7486 -1 0 -1 
1682 62 2 57.6064 100.22 91.7747 -2 1 1 
1185 44 2 65.2431 97.7958 90.8915 2 -1 -1 
1557 58 2 64.9946 104.401 89.8262 -1 0 1 
213 8 2 62.4024 101.746 93.3106 -1 1 -1 
689 26 2 61.8842 100.333 88.4118 0 1 1 
64 2 2 59.8312 104.98 90.365 0 -1 0 
1467 54 2 70.4579 103.963 89.829 1 1 1 
1147 42 2 68.0922 101.669 93.6647 1 0 1 
1462 54 2 67.6737 100.549 87.3253 1 0 0 
1591 59 2 72.2836 98.9196 86.2953 0 2 1 
1172 43 2 77.0642 99.1651 87.9446 0 0 0 
1673 62 2 79.4003 104.711 91.1642 -1 3 0 
1265 47 2 78.5005 99.8121 92.5526 0 1 0 
173 6 2 75.4777 104.207 88.7287 1 0 0 
220 8 2 75.7402 103.805 94.8806 1 0 0 
1391 52 2 73.0857 100.567 91.3463 2 0 0 
954 35 2 54.3763 80.0382 100.891 0 -1 1 
1620 60 2 55.3903 76.9085 104.286 1 0 1 
1093 40 2 57.827 82.3504 97.6796 0 1 1 
1618 60 2 51.9023 83.0339 97.1189 1 2 -1 
1140 42 2 58.2604 76.9058 97.997 1 1 -1 
1503 56 2 62.931 78.8167 97.1412 0 2 -1 
548 20 2 59.3669 80.143 103.216 1 0 0 
1463 54 2 64.3556 77.6228 103.443 0 0 -2 
1546 57 2 63.9291 82.9372 101.445 -1 -1 -1 
454 17 2 68.438 79.998 99.6907 1 0 0 
1427 53 2 71.9526 78.7491 96.4255 1 0 0 
51 2 2 70.0924 77.5654 104.703 -2 0 -1 
1403 52 2 67.6886 82.9833 104.644 3 0 1 
819 30 2 67.7934 76.1598 95.9383 -1 1 2 
1518 56 2 73.5504 79.6618 101.633 0 -1 0 
773 29 2 77.9329 79.9389 103.831 -1 1 1 
1277 47 2 76.6901 80.2055 97.6349 1 0 -2 
1090 40 2 55.2936 86.1018 99.8461 -1 2 0 
110 4 2 57.2919 88.6819 104.213 -2 0 -1 
609 23 2 56.1539 83.9398 104.397 -1 1 0 
1133 42 2 51.3225 84.8709 102.486 1 -2 0 
193 7 2 52.3457 89.7562 102.975 1 0 -2 
1651 61 2 59.9705 86.1787 100.937 0 -1 1 
1176 44 2 59.7514 87.6153 95.9695 -1 0 -2 
1500 56 2 64.6771 88.2491 97.4923 0 0 1 
679 25 2 62.7953 83.5488 96.7499 0 2 1 
742 27 2 61.9378 90.1231 104.951 1 1 0 
636 24 2 66.2169 87.294 102.236 0 0 0 
342 13 2 70.938 85.6077 101.331 0 0 0 
999 37 2 67.7602 83.9508 97.0745 0 -2 1 
1194 44 2 71.1944 88.4942 96.8341 1 0 0 
964 36 2 72.6627 83.7248 96.7713 0 1 -2 
837 31 2 77.8677 85.2774 96.3903 1 0 1 
1192 44 2 76.153 84.1776 100.734 0 0 -1 
94 3 2 74.6916 88.0399 104.921 0 0 -1 
1037 38 2 75.9489 88.8382 99.8097 -2 1 -1 
1641 61 2 55.2687 90.7771 98.8172 1 0 2 
77 3 2 52.0585 94.3573 100.833 0 -1 -2 
1267 47 2 56.0047 95.7077 96.948 2 1 0 
1475 55 2 56.413 93.5352 103.17 1 1 0 
1499 56 2 60.0504 90.8782 100.351 0 0 0 
1349 50 2 61.0203 96.4747 99.0704 1 0 0 
736 27 2 61.0689 94.9589 104.042 0 -1 1 
1642 61 2 62.014 92.1355 96.0696 0 -1 1 
719 27 2 64.3027 97.1848 95.7959 1 -2 1 
488 18 2 64.8054 93.0234 100.463 0 0 -1 
560 21 2 70.5728 90.4863 101.947 0 -2 1 
641 24 2 69.7273 95.2008 101.826 -2 0 1 
1329 49 2 67.453 93.1634 96.5848 1 0 1 
1139 42 2 72.4144 93.6587 97.8118 0 0 1 
1517 56 2 74.77 94.0129 102.944 2 -1 0 
707 26 2 79.3575 91.7377 102.178 -3 -2 1 
341 13 2 77.667 94.3027 97.6914 -1 1 1 
924 34 2 78.7857 96.5235 101.684 0 0 -1 
135 5 2 57.0202 98.6266 101.548 0 0 -1 
1528 57 2 52.5349 100.053 100.111 1 0 -1 
978 36 2 57.997 100.401 96.6188 -2 0 -1 
716 27 2 56.5702 104.146 99.5915 1 0 0 
1191 44 2 56.7329 102.269 104.896 1 0 0 
562 21 2 62.0936 101.841 98.668 1 1 0 
1004 37 2 65.3419 98.1952 101.073 -1 2 1 
347 13 2 61.2655 100.04 103.94 1 -1 0 
981 36 2 65.2337 102.972 104.129 -1 -1 1 
45 2 2 69.4524 98.0793 97.6345 0 -2 -1 
513 19 2 66.7971 102.088 98.4411 1 0 2 
1638 61 2 69.5286 101.612 102.884 1 -1 1 
62 2 2 71.6953 102.365 97.8829 1 1 -2 
880 33 2 76.2426 100.181 104.817 1 -1 0 
1034 38 2 74.4143 98.0361 95.4931 1 0 1 
475 18 2 74.5352 104.276 102.358 0 -2 2 
680 25 2 73.2391 98.3617 100.656 0 1 0 
538 20 2 77.285 100.97 99.0383 0 0 -1 
659 24 2 56.7876 78.2365 113.893 1 0 0 
287 11 2 51.4771 77.3215 111.448 0 -1 -1 
249 9 2 55.8401 76.2558 109.37 1 0 0 
697 26 2 53.1374 81.199 106.645 -1 -2 0 
256 9 2 55.865 83.111 111.057 0 0 -1 
995 37 2 57.9219 80.7309 107.583 0 -1 -1 
1411 52 2 51.0444 76.7138 106.355 2 3 0 
864 32 2 61.3547 78.2714 111.856 -1 1 1 
979 36 2 60.957 76.4849 106.841 2 -1 1 
1272 47 2 63.3475 81.3172 106.78 0 0 -1 
221 8 2 64.0895 82.0875 114.244 0 0 0 
1054 39 2 65.6056 77.1052 114.379 -1 -1 -1 
185 7 2 71.425 79.1328 109.167 0 0 1 
751 28 2 66.9829 81.9157 110.121 1 0 0 
1633 60 2 66.4969 76.9812 108.346 3 1 -1 
476 18 2 73.7615 82.2491 106.008 1 0 -1 
959 36 2 74.7327 76.3702 105.448 1 -1 0 
449 17 2 79.4015 80.6792 108.705 0 0 -2 
1417 52 2 78.0398 81.5306 113.618 1 1 0 
1232 46 2 76.2946 77.3222 110.851 1 -1 -2 
1438 53 2 73.1003 81.3296 114.45 1 0 1 
1656 61 2 53.019 86.1655 107.517 2 1 -1 
1328 49 2 57.124 87.853 109.417 2 0 0 
115 4 2 54.2664 87.3612 113.542 0 0 -1 
795 29 2 60.5931 85.4693 105.945 -1 1 1 
966 36 2 60.9323 83.8033 110.669 -1 -1 1 
1182 44 2 65.3904 86.6345 112.683 0 -1 -1 
838 31 2 61.9231 89.3189 110.275 0 2 0 
1450 54 2 65.454 87.3564 107.402 0 0 1 
724 27 2 70.3854 86.948 106.597 2 -1 -1 
855 32 2 70.2231 85.5911 111.597 2 -1 0 
677 25 2 78.2304 84.7527 105.661 0 1 -1 
231 9 2 75.1095 83.7572 110.598 2 1 -2 
1290 48 2 74.8606 88.4688 110.073 1 0 -1 
466 17 2 79.3922 86.1883 112.244 0 1 1 
40 1 3 51.0863 94.6564 112.481 0 0 0 
1011 37 2 52.8797 96.6563 105.417 -1 0 2 
39 1 1 52.1444 96.6062 113.568 0 0 0 
1461 54 2 53.6037 91.3259 107.51 0 0 0 
815 30 2 56.0946 91.9739 112.579 1 1 2 
34 1 3 55.4519 96.3431 109.991 0 0 0 
27 1 1 57.1831 97.1672 114.451 0 0 0 
1164 43 2 58.5083 92.6351 107.833 2 0 1 
769 28 2 64.8849 95.4913 114.301 -1 -1 -1 
1033 38 2 63.9517 94.1354 108.508 -1 1 0 
30 1 3 60.1223 95.5302 112.315 0 0 0 
29 1 1 58.8311 97.5896 112.454 0 0 0 
46 2 2 66.9879 92.0883 105.174 0 0 0 
1235 46 2 66.7897 91.0596 111.257 0 1 1 
125 5 2 68.6011 95.5982 109.69 -1 0 -1 
557 21 2 71.782 91.9635 106.714 -1 1 1 
1544 57 2 71.4695 91.4989 111.955 0 0 1 
737 27 2 77.2895 90.7508 113.921 0 0 -1 
1289 48 2 76.9541 96.114 114.028 -1 0 0 
1144 42 2 73.0348 96.9926 106.226 0 1 -1 
1497 55 2 75.9891 93.4738 109.445 1 0 0 
136 5 2 72.9596 96.9886 111.167 1 0 -1 
1435 53 2 51.6801 101.189 105.126 1 -1 1 
33 1 1 55.8248 98.8791 109.694 0 0 0 
37 1 1 51.9653 98.2129 111.484 0 0 0 
35 1 1 53.8717 99.8852 111.077 0 0 0 
36 1 3 53.0988 101.835 109.723 0 0 0 
12 1 3 57.7302 104.218 110.227 0 0 0 
11 1 1 57.592 103.103 112.36 0 0 0 
9 1 1 55.5316 103.571 113.765 0 0 0 
14 1 3 61.4112 104.172 113.726 0 0 0 
32 1 3 59.7097 97.9527 108.544 0 0 0 
16 1 3 62.5403 99.2773 114.342 0 0 0 
507 19 2 64.0388 100.495 109.909 1 -1 1 
31 1 1 58.3998 98.9366 110.375 0 0 0 
1594 59 2 61.8002 104.305 108.134 1 -1 0 
13 1 1 59.987 102.219 113.065 0 0 0 
1097 41 2 68.507 101.584 108.059 0 -1 1 
184 7 2 68.7046 99.3217 112.962 0 -1 -2 
1000 37 2 66.016 97.9171 105.989 1 1 2 
521 19 2 71.7078 103.561 114.066 -1 0 0 
44 2 2 76.0659 101.091 113.171 -1 0 -1 
56 2 2 78.7948 102.497 108.798 0 -1 -1 
310 11 2 73.6437 102.364 108.522 0 1 0 
1383 51 2 77.7802 98.154 109.321 0 0 0 
1247 46 2 56.6842 77.6926 119.197 0 1 -1 
1127 42 2 53.6772 81.9502 120.27 2 -1 -1 
1314 49 2 53.3506 82.0118 115.3 0 0 -2 
695 26 2 52.0713 76.9739 116.771 1 -1 -2 
1532 57 2 55.2712 78.8254 124.277 0 4 -1 
1112 41 2 59.1244 81.8455 116.045 1 1 0 
968 36 2 61.6299 77.5263 117.712 -1 -2 0 
1291 48 2 59.8713 80.0823 122.069 0 0 -1 
1692 63 2 64.7892 80.256 120.429 1 1 -1 
1226 45 2 69.1554 80.688 116.785 1 0 -1 
155 6 2 69.6709 81.9387 121.819 0 0 -1 
617 23 2 67.7365 76.217 119.161 -1 2 0 
1129 42 2 72.9683 78.532 119.4 1 1 -1 
818 30 2 77.9851 80.2273 119.005 1 -1 0 
304 11 2 73.8704 81.5196 123.781 0 -1 0 
292 11 2 75.7245 77.0224 115.584 1 1 0 
445 16 2 54.6331 86.8019 118.455 1 0 -1 
1089 40 2 57.4713 89.6908 122.48 1 -1 0 
665 25 2 53.6205 86.3678 123.844 0 0 0 
1203 45 2 58.5367 85.0952 120.346 1 0 0 
1405 52 2 62.8797 85.1921 118.332 2 0 0 
1201 44 2 62.1804 84.4034 124.028 1 -1 -1 
1186 44 2 62.1832 89.6593 119.886 1 1 -1 
352 13 2 59.3706 87.1512 114.991 1 0 0 
1628 60 2 66.8555 86.4579 120.887 0 1 -2 
105 4 2 69.5787 85.5362 116.253 -2 2 0 
93 3 2 71.6007 87.7618 120.529 0 -1 -3 
364 13 2 68.0553 90.4027 116.241 -1 -1 0 
1288 48 2 74.5363 83.7641 118.962 0 -1 0 
1448 54 2 74.3979 87.8505 124.305 -1 1 0 
912 34 2 77.4047 88.1119 119.461 -1 0 -2 
1051 39 2 78.0326 84.1104 122.963 0 0 1 
678 25 2 79.8155 84.408 117.488 -1 0 -1 
970 36 2 74.6344 86.5012 114.95 1 -2 1 
126 5 2 51.9026 91.2127 121.113 0 0 -1 
160 6 2 51.131 96.7512 122.125 0 -1 -1 
934 35 2 52.3226 91.6421 116.176 1 -1 -1 
942 35 2 57.2334 91.0403 117.517 -1 0 1 
25 1 1 57.5396 95.851 116.499 0 0 0 
24 1 3 54.0566 95.4155 118.588 0 0 0 
1184 44 2 55.4415 94.6338 123.569 2 -1 0 
23 1 1 56.3282 96.3739 118.76 0 0 0 
26 1 3 59.8095 95.0019 116.831 0 0 0 
1627 60 2 59.8832 94.2697 121.872 3 1 -1 
666 25 2 64.6228 93.9463 119.081 -2 0 0 
516 19 2 63.2198 91.0775 115.103 -1 -2 0 
916 34 2 63.801 97.2383 122.865 -2 0 -2 
778 29 2 69.5877 94.9222 115.599 0 -1 0 
265 10 2 68.529 91.4844 121.278 -1 0 0 
1305 48 2 69.1606 96.2871 121.31 0 -2 0 
965 36 2 73.9304 96.7198 118.873 -2 0 0 
536 20 2 72.9157 91.6817 117.362 0 -1 1 
473 18 2 73.4211 92.6813 121.951 1 1 1 
1525 56 2 77.7243 93.4838 118.703 0 1 -1 
1436 53 2 79.4579 92.6481 123.89 1 1 -1 
372 14 2 76.428 96.9345 123.31 0 0 0 
732 27 2 58.0429 104.908 123.785 1 -1 1 
22 1 3 55.2483 99.1945 121.272 0 0 0 
3 1 1 52.6254 102.077 118.346 0 0 0 
21 1 1 55.6377 98.9256 118.941 0 0 0 
19 1 1 57.6556 100.589 118.279 0 0 0 
1 1 1 51.8474 100.348 116.516 0 0 0 
4 1 3 51.555 101.53 120.472 0 0 0 
5 1 1 54.5516 103.517 118.502 0 0 0 
7 1 1 55.3656 104.572 116.285 0 0 0 
28 1 3 56.1322 99.4115 114.748 0 0 0 
20 1 3 58.2473 101.722 120.325 0 0 0 
15 1 1 60.7465 100.689 115.126 0 0 0 
18 1 3 61.0203 98.7119 119.085 0 0 0 
17 1 1 59.7221 99.6098 117.202 0 0 0 
153 6 2 63.1067 104.041 118.909 0 1 0 
389 14 2 62.2725 102.114 123.865 0 0 -1 
1118 41 2 65.8336 98.912 118.009 0 1 -2 
1634 61 2 66.8822 101.737 121.692 1 -1 0 
1419 53 2 70.6934 99.8369 118.103 0 -1 1 
1161 43 2 72.4122 99.8059 123.143 0 1 0 
1188 44 2 67.0023 103.219 115.806 -1 0 -1 
520 19 2 70.8188 104.405 123.989 -1 -1 1 
580 21 2 70.6881 104.916 119.184 2 0 0 
655 24 2 76.0348 102.727 124.177 0 2 1 
1115 41 2 74.961 102.41 119.341 1 0 0 
375 14 2 78.4927 99.3965 118.156 -3 1 0 
1632 60 2 55.4039 81.7201 133.889 1 2 -2 
371 14 2 54.471 79.7032 129.172 0 0 0 
1530 57 2 55.5131 75.9811 131.602 1 -2 0 
1498 55 2 63.4379 77.4554 124.937 0 0 0 
1320 49 2 60.6379 80.7774 127.41 1 0 1 
781 29 2 59.4039 79.1991 132.071 1 0 -1 
1492 55 2 63.0076 82.4592 132.097 0 1 0 
901 33 2 65.3074 78.2971 129.814 1 1 -1 
914 34 2 68.7153 77.5143 124.656 0 0 -1 
596 22 2 67.8847 82.1359 133.344 2 -1 1 
254 9 2 70.5744 81.3518 127.871 0 1 0 
1220 45 2 71.7846 79.374 132.263 2 1 -2 
197 7 2 66.3529 81.8646 125.712 -1 1 2 
1470 54 2 78.9204 79.8295 124.728 1 -1 0 
1155 43 2 74.9057 78.6758 127.868 1 0 -1 
586 22 2 76.7685 77.8599 132.842 -1 0 -1 
202 7 2 55.6139 89.243 131.448 3 0 -1 
1582 59 2 53.965 85.4542 128.922 -1 1 -1 
756 28 2 54.3166 90.2993 126.878 -1 0 0 
194 7 2 57.0655 83.4373 125.333 0 1 -1 
1441 53 2 51.7566 86.3667 133.066 0 1 -1 
1460 54 2 58.1934 83.8834 130.537 2 0 0 
1111 41 2 58.7838 87.8746 127.508 -1 2 -1 
952 35 2 63.4381 86.5616 128.672 0 1 -2 
1357 50 2 59.9949 87.8771 132.918 1 -1 1 
1061 39 2 65.2999 87.3285 133.175 0 -1 1 
1270 47 2 70.3546 85.384 124.971 0 1 0 
1286 48 2 66.2839 88.3849 125.284 1 1 0 
325 12 2 69.3566 86.4296 129.848 -1 0 -1 
252 9 2 70.8406 90.2045 126.203 0 0 0 
232 9 2 79.0281 88.395 125.738 1 0 -1 
318 12 2 73.78 84.0685 132.177 -1 -1 -1 
515 19 2 76.1524 83.5799 127.595 1 0 -2 
891 33 2 74.5013 88.1314 129.325 0 -1 0 
1236 46 2 54.0463 93.8547 131.581 0 0 -1 
764 28 2 58.5767 93.5929 127.06 1 2 1 
1705 63 2 62.0916 90.5244 125.204 2 0 0 
671 25 2 63.0026 96.3528 127.744 0 1 -1 
106 4 2 62.0301 91.6167 129.978 1 -1 -1 
963 36 2 62.9324 97.5927 132.623 -1 0 -2 
1561 58 2 58.4783 97.1356 130.346 2 -1 -1 
1058 39 2 59.2966 93.2878 133.436 1 1 0 
581 22 2 67.0984 90.8201 129.883 1 -1 -1 
259 10 2 66.5699 93.9442 125.702 1 0 1 
505 19 2 67.0337 95.8373 130.713 1 -2 0 
1495 55 2 71.7482 93.0248 130.468 1 0 1 
138 5 2 70.6891 96.2504 126.75 1 0 -1 
215 8 2 74.6197 90.5183 133.708 1 1 -2 
489 18 2 78.5436 91.0385 130.189 0 0 2 
763 28 2 74.8734 92.8469 126.394 0 1 1 
1547 57 2 76.5447 95.091 132.142 1 1 -3 
887 33 2 53.994 102.206 125.016 0 1 1 
926 34 2 51.4106 104.262 129.33 0 0 -2 
761 28 2 53.5103 98.2186 127.882 1 0 -2 
1635 61 2 56.7521 101.895 129.275 1 0 -2 
1026 38 2 54.8934 98.7776 133.18 0 -1 0 
366 14 2 63.8787 104.889 131.259 1 0 0 
273 10 2 61.3626 100.897 128.82 1 -1 -2 
739 27 2 58.723 98.3267 124.697 -1 -2 0 
1655 61 2 59.8533 101.334 133.582 1 -1 1 
458 17 2 71.4915 97.8308 131.607 0 2 1 
1283 48 2 67.6124 100.391 132.73 0 -1 0 
792 29 2 71.6163 101.685 128.363 -2 1 2 
1285 48 2 66.1984 100.042 126.948 -1 -1 0 
1465 54 2 78.1087 104.878 129.253 -1 -1 0 
933 35 2 74.0193 103.561 132.26 -1 -3 -1 
1295 48 2 75.2462 98.2658 127.892 1 0 0 
1344 50 2 79.0131 99.562 131.216 0 -1 -1 
1429 53 2 51.9813 108.086 83.74 2 -1 0 
1416 52 2 56.9308 108.144 78.1693 0 1 0 
481 18 2 53.0323 111.452 80.1759 0 0 -1 
1708 63 2 52.1918 106.301 78.9777 0 -1 3 
1576 58 2 56.1297 105.289 82.3012 0 0 1 
400 15 2 58.5592 109.741 82.7314 -2 -2 1 
114 4 2 64.4537 108.378 82.6353 -1 0 0 
1706 63 2 62.7304 109.098 77.0714 1 0 0 
121 4 2 60.9739 105.005 79.3888 0 -1 0 
1423 53 2 68.4759 111.704 84.7288 0 -1 0 
829 31 2 70.136 107.995 81.7991 1 -1 -1 
570 21 2 71.1447 106.301 77.4593 -1 -1 -1 
1704 63 2 66.1489 105.373 78.1259 -3 1 0 
1536 57 2 67.5336 110.209 76.1836 0 0 2 
409 15 2 74.8874 108.994 79.8467 0 -1 1 
725 27 2 75.6568 107.733 84.1038 -1 0 0 
290 11 2 79.2293 105.424 81.4452 1 0 0 
288 11 2 73.3923 112.035 83.4791 0 0 1 
1649 61 2 79.627 109.783 79.0793 -1 0 0 
459 17 2 55.7845 113.168 84.0638 1 1 -2 
1113 41 2 56.1632 116.989 80.8992 1 -1 0 
234 9 2 51.4245 117.092 82.5049 0 0 0 
359 13 2 58.8062 113.194 78.1814 0 1 0 
799 30 2 62.2512 116.213 80.9261 0 -2 1 
463 17 2 59.9818 118.08 76.6593 0 0 0 
1152 43 2 62.5595 112.707 84.4381 0 0 1 
144 5 2 58.6273 117.116 85.5096 2 1 1 
496 18 2 66.2675 113.033 80.3511 -2 1 -1 
1365 51 2 71.1147 112.493 78.8558 1 -1 0 
956 35 2 66.4909 116.184 84.2411 1 -2 -1 
638 24 2 66.9018 117.945 78.2935 0 0 2 
1081 40 2 71.8691 116.508 81.8328 1 0 1 
212 8 2 78.7668 112.528 83.1474 1 1 1 
321 12 2 76.2063 113.454 77.94 0 0 -1 
980 36 2 75.4159 117.994 85.1501 0 -2 0 
1605 59 2 77.8833 117.104 80.7624 -1 2 1 
1679 62 2 72.7852 117.392 76.8726 1 1 0 
734 27 2 54.8628 120.621 84.5038 2 0 0 
198 7 2 52.7235 120.243 79.2958 2 1 0 
1601 59 2 53.5943 125.235 85.2609 1 -2 0 
664 25 2 55.8088 124.123 80.627 -1 0 0 
385 14 2 56.142 126.449 76.3246 1 0 -1 
1422 53 2 59.1329 120.716 82.0211 2 -1 0 
326 12 2 63.5225 123.747 83.7847 -1 -1 -1 
1153 43 2 59.6442 122.881 77.8594 1 0 0 
424 16 2 59.1392 126.091 83.9902 0 1 0 
1570 58 2 68.8598 120.57 83.0492 -1 0 -2 
1306 48 2 65.7181 123.351 79.4366 0 -1 -1 
1407 52 2 70.7601 121.883 78.5295 3 1 0 
465 17 2 68.9886 126.269 82.8201 0 0 1 
1412 52 2 73.2259 123.516 83.8872 1 0 -1 
1523 56 2 76.8952 121.895 81.3731 -1 0 -1 
410 15 2 77.9735 126.766 84.0621 0 0 0 
260 10 2 77.5868 119.769 76.3026 0 0 1 
1640 61 2 74.2365 125.774 79.3392 -1 0 0 
1099 41 2 53.8819 128.499 81.4815 1 0 0 
369 14 2 56.1226 131.551 77.8474 -1 -2 0 
1678 62 2 55.6285 130.062 85.6069 2 -2 1 
784 29 2 54.4387 133.906 82.1087 0 -1 2 
98 4 2 59.6673 131.974 82.359 0 -2 -1 
906 34 2 60.2732 128.129 78.7506 1 -3 0 
1653 61 2 63.9733 128.862 82.3932 2 0 1 
897 33 2 61.5058 132.79 77.4098 2 1 2 
267 10 2 68.6646 131.118 83.7838 -2 0 1 
1082 40 2 67.1003 128.581 77.7513 1 0 1 
1612 60 2 71.1873 130.513 79.4719 1 -1 2 
1063 39 2 66.2183 133.603 80.4128 1 0 2 
1125 42 2 68.7579 133.99 76.343 0 0 0 
152 6 2 72.9821 128.673 84.1009 0 0 0 
1260 47 2 73.4371 133.443 83.4841 0 1 1 
569 21 2 77.4987 130.497 80.4879 2 1 0 
208 8 2 54.0383 111.244 88.5085 0 0 -2 
738 27 2 57.1196 109.061 92.5824 0 1 1 
228 8 2 57.6988 108.154 87.2333 -1 1 0 
595 22 2 52.247 108.123 92.3823 0 -1 0 
407 15 2 53.8429 105.472 88.2331 0 -1 1 
961 36 2 62.0509 109.579 92.9415 0 -1 0 
71 3 2 62.6331 108.792 88.017 -2 -2 0 
495 18 2 64.7169 105.646 94.819 -1 -2 0 
673 25 2 67.2866 106.602 86.1868 0 0 0 
542 20 2 67.9063 108.417 90.6009 1 1 1 
1454 54 2 71.7878 107.944 87.3319 0 1 0 
1043 39 2 70.9989 112.088 90.4204 1 -1 0 
1566 58 2 71.0689 111.06 95.3162 -1 -1 1 
558 21 2 73.0563 107.601 92.1072 0 -1 0 
953 35 2 77.7162 108.617 94.2382 0 -3 0 
866 32 2 77.596 109.393 88.9301 -1 1 2 
1664 62 2 54.109 112.938 93.2397 1 0 0 
872 32 2 52.8607 118.434 92.3879 1 0 1 
1077 40 2 53.6127 116.187 87.8892 0 0 1 
811 30 2 57.6987 117.082 90.852 0 0 1 
416 15 2 58.8324 112.318 89.2376 2 1 0 
927 34 2 63.2496 117.28 87.4446 0 -2 -1 
1356 50 2 62.4776 115.095 91.4692 1 0 0 
1198 44 2 58.6876 113.495 94.3719 1 1 -2 
1643 61 2 66.5669 113.022 88.765 2 0 1 
989 37 2 70.8019 115.723 86.9841 0 -2 1 
530 20 2 67.7498 117.976 90.0343 0 -1 0 
1030 38 2 67.3506 114.008 93.6723 -1 0 -2 
715 26 2 72.505 117.61 91.9786 0 0 -1 
1032 38 2 66.9678 118.771 95.1597 0 1 0 
244 9 2 75.0394 113.728 88.303 0 1 2 
1280 47 2 74.694 113.396 93.4667 0 0 1 
1469 54 2 77.1209 117.666 94.1752 2 1 2 
1341 50 2 77.9979 117.435 89.5974 1 0 -1 
599 22 2 55.1589 126.745 93.5144 0 -1 -1 
398 15 2 54.0845 122.835 89.6755 1 0 0 
1574 58 2 57.7055 126.125 88.7135 1 0 2 
1415 52 2 59.5726 121.494 86.9684 1 -1 -1 
85 3 2 58.4018 121.763 93.6268 1 -1 -1 
1449 54 2 63.4059 120.594 91.2961 0 -1 0 
1617 60 2 62.7566 125.219 88.4708 -1 2 1 
774 29 2 60.7133 126.334 93.0651 -1 0 1 
702 26 2 71.4964 120.738 87.7403 0 0 0 
1239 46 2 66.66 125.542 93.2166 0 0 -1 
1197 44 2 66.8197 122.582 87.8707 0 0 -1 
122 5 2 70.0757 122.246 92.2697 0 0 1 
1096 41 2 70.6283 125.918 88.5456 0 -3 0 
669 25 2 75.1237 121.858 91.7542 1 0 1 
210 8 2 77.1352 122.247 87.2675 1 0 -1 
843 31 2 79.1452 125.462 90.7041 0 -2 1 
534 20 2 51.0994 132.392 86.8534 0 0 -1 
293 11 2 52.8461 131.662 94.1682 0 0 0 
1169 43 2 51.8799 128.236 89.6076 -1 0 0 
524 19 2 56.058 130.297 90.3196 0 0 1 
1345 50 2 62.9719 132.553 94.7956 -1 0 0 
303 11 2 61.1082 130.063 87.2097 0 -2 0 
1249 46 2 63.8551 129.611 91.2812 -1 0 0 
1702 63 2 71.9788 131.688 95.1276 0 1 0 
682 25 2 66.4065 128.122 87.3047 0 1 1 
1095 41 2 68.6412 129.98 91.4693 0 -1 1 
744 28 2 66.5822 133.263 88.3779 0 0 0 
1346 50 2 71.4702 131.308 87.8666 1 -1 0 
327 12 2 77.6931 133.849 95.1806 0 -1 1 
519 19 2 75.2339 127.451 88.6047 -1 -2 0 
1303 48 2 72.7486 126.978 92.8967 1 -1 1 
543 20 2 77.355 128.761 94.6936 0 -1 -1 
1675 62 2 77.5023 131.315 86.6211 0 1 -1 
419 16 2 75.3458 131.709 91.3017 1 0 -1 
602 22 2 53.6807 109.78 103.589 1 2 2 
1187 44 2 53.6932 107.919 97.5197 1 2 1 
176 7 2 58.1579 108.992 100.044 1 -2 1 
896 33 2 51.1095 111.084 99.7432 2 -1 0 
749 28 2 63.8363 107.022 99.587 1 0 1 
1442 53 2 61.6731 111.925 97.9473 0 1 0 
1228 45 2 60.23 106.331 103.71 1 0 -2 
800 30 2 62.8383 110.702 103.127 -1 0 0 
271 10 2 59.6743 105.611 96.138 0 1 1 
268 10 2 66.0977 110.31 96.503 -1 -1 0 
1588 59 2 68.7484 106.361 100.816 0 1 2 
917 34 2 69.3132 111.884 100.111 0 0 -1 
676 25 2 69.5972 106.303 95.6819 0 0 0 
50 2 2 73.7535 107.374 98.1155 0 0 0 
1015 38 2 72.7697 108.935 103.301 0 0 -1 
1279 47 2 78.2163 107.734 101.734 1 -2 0 
1621 60 2 75.4646 111.949 98.1969 -1 0 -1 
1227 45 2 57.9089 112.478 104.033 0 0 0 
533 20 2 53.9068 114.554 102.197 1 0 0 
1092 40 2 55.5588 112.987 97.8773 0 1 -1 
1645 61 2 57.0147 117.961 103.583 0 -2 1 
805 30 2 56.0983 117.419 96.0867 0 0 2 
699 26 2 51.2833 115.64 96.8562 0 -1 1 
1681 62 2 59.832 115.774 100.453 1 -1 -2 
1526 57 2 64.1292 115.929 103.637 2 2 1 
191 7 2 61.4604 117.97 95.7924 0 0 0 
857 32 2 65.5846 115.076 98.4629 -1 -1 1 
762 28 2 69.2172 116.498 101.918 0 0 -1 
338 13 2 72.0438 115.697 97.4131 -1 -1 -1 
67 2 2 73.6174 113.891 102.279 1 -2 1 
1519 56 2 76.2442 117.818 99.6058 -2 0 0 
863 32 2 79.4245 112.853 101.169 -1 1 1 
305 11 2 72.7599 119.207 102.923 0 0 -1 
361 13 2 51.1104 125.642 102.105 0 -2 -1 
140 5 2 53.4244 119.969 100.494 0 1 -1 
754 28 2 57.2467 123.145 103.575 0 -1 -1 
485 18 2 52.804 122.208 95.6315 -1 -1 1 
1162 43 2 58.3224 125.513 97.1951 0 -2 1 
367 14 2 63.8331 119.912 99.9187 -1 0 0 
1485 55 2 62.5291 122.936 95.9445 -1 -2 -1 
1372 51 2 58.3102 120.934 99.2314 0 -1 1 
60 2 2 61.2549 124.746 101.115 1 -1 0 
427 16 2 61.9678 120.99 104.888 -1 0 0 
1284 48 2 66.0767 124.735 99.2478 0 -1 1 
1242 46 2 68.9573 120.926 100.059 1 -1 1 
1388 51 2 70.6672 125.051 97.0659 1 0 1 
315 12 2 66.9392 120.891 104.379 0 -2 -1 
1707 63 2 73.1145 120.715 96.1751 0 1 1 
1542 57 2 77.3164 120.695 104.556 0 -1 0 
775 29 2 74.841 123.044 100.44 0 0 0 
1565 58 2 79.4811 121.862 99.5413 0 0 1 
1472 55 2 77.088 123.984 95.5214 0 0 0 
957 35 2 75.8471 126.089 104.54 0 -3 0 
1687 62 2 53.7753 133.102 99.2698 2 1 0 
637 24 2 53.7963 127.947 98.2932 -1 0 1 
985 36 2 58.0664 130.523 96.3109 -1 -1 0 
1174 43 2 57.8181 128.824 101.185 1 0 2 
1554 58 2 53.234 129.838 103.129 0 -1 0 
608 23 2 62.8239 129.392 102.73 0 0 -1 
383 14 2 63.0145 128.243 96.9934 0 1 0 
397 15 2 60.5731 133.211 101.889 0 0 -1 
1486 55 2 65.5595 131.612 99.7639 0 -1 1 
468 17 2 68.9461 127.623 102.018 1 -1 0 
443 16 2 67.7022 129.178 96.5087 -1 -1 0 
1181 44 2 67.2715 132.224 104.446 -2 0 0 
971 36 2 70.7018 132.716 100.308 2 -3 2 
95 4 2 72.7288 129.914 104.097 0 -1 1 
299 11 2 73.5317 128.839 98.9063 0 -2 1 
433 16 2 78.2816 126.977 99.2902 0 0 0 
644 24 2 76.0197 132.685 101.125 -1 1 0 
1690 63 2 57.5229 108.213 107.341 0 -1 1 
1336 49 2 52.9166 110.645 109.823 2 0 -1 
425 16 2 53.3038 105.849 107.131 0 2 -1 
862 32 2 58.133 108.919 112.696 1 1 1 
10 1 3 54.2286 105.247 112.478 0 0 0 
1146 42 2 64.7185 112.057 114.226 0 0 -3 
871 32 2 64.929 107.435 106.309 -2 2 1 
1703 63 2 62.7904 108.287 111.595 1 1 2 
508 19 2 68.3953 111.188 105.065 1 -3 2 
1274 47 2 69.8623 106.39 106.058 0 1 0 
1065 39 2 67.2766 109.978 110.252 0 0 0 
888 33 2 71.4231 107.562 111.202 -2 1 1 
1413 52 2 72.1441 111.877 108.17 0 -2 -2 
353 13 2 71.7348 111.895 113.807 0 0 0 
1477 55 2 66.4897 105.104 111.088 2 0 -1 
238 9 2 76.3576 105.901 112.297 0 1 0 
279 10 2 75.5994 106.979 107.417 0 -1 0 
461 17 2 76.0831 110.588 111.333 -1 0 1 
1262 47 2 76.494 111.963 105.571 1 1 -1 
1038 38 2 51.1145 114.213 113.418 1 -1 0 
1214 45 2 56.2834 113.496 112.919 1 0 -1 
1494 55 2 55.083 115.517 107.379 1 1 1 
758 28 2 52.0279 118.79 110.076 0 0 1 
1431 53 2 57.1932 118.162 111.464 0 0 -1 
285 11 2 58.8715 112.555 108.929 1 1 2 
821 30 2 61.4195 115.424 112.524 2 -1 1 
996 37 2 60.3785 117.124 107.667 -1 -1 1 
1045 39 2 63.8547 113.26 108.085 -1 -1 0 
1527 57 2 64.9342 119.228 108.703 0 0 -2 
137 5 2 65.1486 118.702 113.661 0 0 0 
1556 58 2 67.9441 115.327 111.585 0 -1 -1 
653 24 2 68.1866 115.857 106.931 -3 0 1 
1124 42 2 78.4812 116.515 107.218 1 1 -2 
236 9 2 73.4519 116.909 107.036 1 -2 -3 
1660 61 2 76.3984 116.552 111.687 -1 1 0 
1340 50 2 53.0006 121.092 105.631 1 -3 0 
431 16 2 56.8741 122.484 113.845 -1 0 0 
670 25 2 52.932 124.446 111.476 1 0 -1 
81 3 2 56.5888 122.415 108.501 1 1 -1 
1183 44 2 54.6971 126.255 106.646 1 0 0 
788 29 2 64.6334 125.008 105.139 1 0 1 
1658 61 2 61.463 121.724 111.402 2 1 -1 
651 24 2 60.4746 126.173 107.259 0 2 0 
1062 39 2 69.2797 121.419 114.312 1 0 1 
1244 46 2 71.138 123.111 105.476 0 2 0 
573 21 2 67.2205 124.438 110.897 -2 1 0 
642 24 2 69.6043 120.254 109.163 -1 0 0 
248 9 2 73.2094 126.619 109.031 0 0 -1 
49 2 2 78.8012 121.542 114.063 0 -1 -1 
68 3 2 79.1048 123.784 108.497 1 -2 0 
294 11 2 74.9731 121.195 109.232 1 -1 0 
161 6 2 57.5465 130.574 106.19 1 0 -1 
1350 50 2 54.7963 131.681 113.948 0 0 0 
531 20 2 57.2247 127.115 110.878 0 0 0 
1711 63 2 52.7496 130.104 109.033 0 0 1 
1106 41 2 59.6602 131.468 111.362 2 1 0 
1240 46 2 63.4747 130.26 108.294 0 0 0 
726 27 2 62.2742 127.221 112.442 2 -2 0 
1481 55 2 70.9798 133.757 114.617 0 -1 0 
1215 45 2 71.2008 126.819 113.005 0 -1 0 
109 4 2 68.6219 127.852 107.024 2 -2 0 
1394 52 2 67.1446 129.796 111.659 0 0 0 
128 5 2 71.0689 131.986 108.643 0 -1 -1 
464 17 2 79.6158 131.805 112.545 -2 0 -1 
1217 45 2 77.7361 126.85 113.506 1 0 -1 
1142 42 2 76.9153 130.113 108.746 0 -1 0 
657 24 2 74.1298 130.681 112.889 -2 -2 -2 
1387 51 2 56.6131 110.195 119.996 1 0 0 
783 29 2 53.3884 109.787 123.891 -1 -1 -1 
6 1 3 54.4167 105.241 120.207 0 0 0 
8 1 3 57.8145 105.064 116.772 0 0 0 
1017 38 2 51.3397 109.034 119.497 -1 -1 1 
147 5 2 53.4035 109.868 115.201 -1 1 -1 
687 25 2 64.1926 107.73 116.281 0 0 -2 
620 23 2 61.0559 107.447 121.04 0 -2 0 
316 12 2 60.1563 110.996 116.572 0 -1 1 
1313 49 2 65.785 106.717 122.084 0 0 -1 
1170 43 2 66.9639 111.002 119.886 0 1 1 
1624 60 2 69.6554 109.34 124.092 3 -1 -1 
801 30 2 71.9733 111.781 119.208 0 -1 0 
73 3 2 68.733 107.902 115.129 0 1 0 
402 15 2 74.1142 108.078 115.859 -2 0 0 
561 21 2 73.8747 107.866 121.481 1 -1 0 
131 5 2 78.0872 111.034 119.773 -1 1 0 