ITEM: TIMESTEP
0
ITEM: NUMBER OF ATOMS
4000
ITEM: BOX BOUNDS pp pp pp
0.0000000000000000e+00 1.3867225487012693e+01
0.0000000000000000e+00 1.3867225487012693e+01
0.0000000000000000e+00 1.3867225487012693e+01
ITEM: ATOMS id type x y z c_stress[1] c_stress[2] c_stress[3] c_stress[4] c_stress[5] c_stress[6] v_sq_pos i_flag
1 1 0 0 0 -59.6016 -60.0505 -63.6986 -0.100589 -0.297631 -1.39191 0 1
2 1 0.693361 0.693361 0 -60.6808 -60.2448 -62.8235 -0.85536 -1.88949 -1.46827 0.9615 0
3 1 0.693361 0 0.693361 -59.6198 -59.8734 -61.9439 0.107981 -0.306528 0.832695 0.9615 1
4 1 0 0.693361 0.693361 -62.1394 -59.8731 -61.9775 -0.86596 -2.47707 -0.83812 0.9615 0
5 1 1.38672 0 0 -62.2771 -62.8421 -62.1502 -2.96612 2.63283 2.89551 1.923 1
8 1 1.38672 0.693361 0.693361 -62.9432 -62.677 -62.726 3.22728 3.25269 -3.12133 2.8845 0
41 1 0 1.38672 0 -59.7078 -62.4029 -62.4117 0.600475 -0.601411 2.82722 1.923 1
43 1 0.693361 1.38672 0.693361 -61.2127 -61.2492 -59.6805 1.65075 0.404824 -0.409318 2.8845 1
45 1 1.38672 1.38672 0 -60.2196 -60.647 -61.7828 -0.825989 1.18687 1.53299 3.846 1
401 1 0 0 1.38672 -63.8035 -61.9924 -61.7194 3.19191 -3.00586 2.27172 1.923 1
402 1 0.693361 0.693361 1.38672 -60.013 -59.6682 -59.6353 -0.195373 -0.154665 -0.0697924 2.8845 0
405 1 1.38672 0 1.38672 -63.1973 -61.4044 -62.9953 2.56885 -3.51474 2.49608 3.846 1
441 1 0 1.38672 1.38672 -63.351 -60.348 -59.8723 -1.70167 1.0497 0.473693 3.846 1
445 1 1.38672 1.38672 1.38672 -59.6576 -63.0833 -63.8933 -0.521213 -0.578342 -3.88716 5.769 1
6 1 2.08008 0.693361 0 -60.3705 -63.8505 -62.1604 1.83719 -1.42809 3.31951 4.8075 0
7 1 2.08008 0 0.693361 -63.6454 -60.5031 -59.838 1.93711 1.02398 -0.487919 4.8075 1
9 1 2.77345 0 0 -59.7304 -59.6442 -62.8184 -0.0981825 0.697695 0.455706 7.692 1
12 1 2.77345 0.693361 0.693361 -60.2505 -60.2233 -61.1748 0.65667 -1.03402 1.01276 8.6535 0
47 1 2.08008 1.38672 0.693361 -61.2016 -59.6912 -62.7304 -0.424505 -2.26015 -0.591699 6.7305 1
49 1 2.77345 1.38672 0 -60.6701 -63.2928 -61.5343 -2.01168 -1.45948 -2.69357 9.615 1
406 1 2.08008 0.693361 1.38672 -59.6808 -62.5744 -61.5166 0.549176 -0.441642 2.40802 6.7305 0
409 1 2.77345 0 1.38672 -59.6683 -62.9977 -62.8129 0.549172 0.534121 -3.32392 9.615 1
449 1 2.77345 1.38672 1.38672 -59.5917 -60.0781 -63.4428 -0.0760725 0.211869 1.38694 11.538 1
10 1 3.46681 0.693361 0 -60.0928 -61.6833 -60.0768 -1.03845 0.504646 1.02208 12.4995 0
11 1 3.46681 0 0.693361 -63.5093 -60.3976 -62.3495 -1.79224 -3.29874 -1.50466 12.4995 1
13 1 4.16017 0 0 -59.6673 -60.5646 -60.1121 0.293081 0.215443 -0.723693 17.307 1
16 1 4.16017 0.693361 0.693361 -61.8128 -61.8209 -63.5768 -2.23679 2.98723 2.99266 18.2685 0
51 1 3.46681 1.38672 0.693361 -62.1825 -59.5833 -59.5899 -0.0920033 0.160034 0.00565766 14.4225 1
53 1 4.16017 1.38672 0 -62.178 -62.5662 -59.9946 -2.78528 -1.03771 -1.11254 19.23 1
410 1 3.46681 0.693361 1.38672 -62.4484 -59.8061 -60.091 0.805153 1.21053 -0.339803 14.4225 0
413 1 4.16017 0 1.38672 -61.1218 -60.4032 -59.5819 -1.12654 -0.0530624 -0.0387722 19.23 1
453 1 4.16017 1.38672 1.38672 -62.0874 -59.6213 -60.1816 -0.321276 -1.22803 -0.157355 21.153 1
14 1 4.85353 0.693361 0 -60.2786 -61.1656 -60.5195 -1.05238 0.810035 1.22041 24.0375 0
15 1 4.85353 0 0.693361 -61.4902 -62.286 -62.8729 -2.27343 -2.50788 -2.98497 24.0375 1
17 1 5.54689 0 0 -63.3449 -59.8157 -62.8583 0.94178 -3.5131 0.878809 30.768 1
20 1 5.54689 0.693361 0.693361 -59.6296 -61.6915 -60.7128 0.323335 0.23682 -1.54647 31.7295 0
55 1 4.85353 1.38672 0.693361 -60.3408 -59.6762 -61.2954 -0.270435 -1.14227 -0.406103 25.9605 1
57 1 5.54689 1.38672 0 -60.3606 -61.2171 -60.9051 1.13035 -1.01695 1.47279 32.691 1
414 1 4.85353 0.693361 1.38672 -60.2417 -62.8625 -60.8142 1.47364 0.903598 -2.01271 25.9605 0
417 1 5.54689 0 1.38672 -61.9504 -60.2441 -61.1133 1.25452 -1.90636 1.00898 32.691 1
457 1 5.54689 1.38672 1.38672 -61.8907 -60.4112 -62.2257 1.38575 -2.47248 1.48281 34.614 1
18 1 6.24025 0.693361 0 -59.877 -60.4691 -60.4502 0.513743 -0.508256 0.879489 39.4215 0
19 1 6.24025 0 0.693361 -59.6144 -63.0494 -60.0874 0.345264 -0.132028 1.32665 39.4215 1
21 1 6.93361 0 0 -60.0542 -60.1266 -62.4101 -0.509022 -1.1583 -1.24367 48.075 1
22 1 7.62697 0.693361 0 -59.6152 -60.7162 -59.8208 0.199738 -0.0919414 0.52295 58.6515 0
23 1 7.62697 0 0.693361 -60.5199 -60.0676 -63.3538 -0.676888 -1.88327 -1.35634 58.6515 1
24 1 6.93361 0.693361 0.693361 -59.8072 -62.0051 -59.6231 0.742062 -0.0988659 0.323081 49.0365 0
59 1 6.24025 1.38672 0.693361 -61.1232 -63.888 -59.6598 -2.57832 -0.350735 -0.586015 41.3445 1
61 1 6.93361 1.38672 0 -61.958 -59.9258 -60.5558 0.906749 1.52323 -0.580832 49.998 1
63 1 7.62697 1.38672 0.693361 -60.9144 -62.488 -59.8396 1.9698 0.588503 -0.868774 60.5745 1
418 1 6.24025 0.693361 1.38672 -59.6929 -62.5752 -61.668 0.581254 -0.485307 2.5007 41.3445 0
421 1 6.93361 0 1.38672 -59.8432 -59.5804 -63.47 -0.00889776 1.01166 0.0342125 49.998 1
422 1 7.62697 0.693361 1.38672 -60.4624 -62.1953 -60.2596 -1.51903 -0.774279 -1.33303 60.5745 0
461 1 6.93361 1.38672 1.38672 -61.0552 -61.7866 -59.6134 -1.80414 -0.221682 -0.271127 51.921 1
25 1 8.32034 0 0 -60.7651 -61.2734 -59.623 1.41653 -0.225592 0.26967 69.228 1
26 1 9.0137 0.693361 0 -62.14 -60.3881 -60.4488 1.43818 1.4912 -0.83778 81.7275 0
27 1 9.0137 0 0.693361 -63.9233 -60.8438 -60.8076 -2.34273 -2.30893 -1.24544 81.7275 1
28 1 8.32034 0.693361 0.693361 -60.1224 -62.5743 -63.7564 1.27426 1.50492 -3.53621 70.1895 0
65 1 8.32034 1.38672 0 -59.7525 -61.2848 -62.9011 -0.542171 0.756731 2.37939 71.151 1
67 1 9.0137 1.38672 0.693361 -59.5923 -61.6949 -59.5909 -0.16089 0.0114958 0.151107 83.6505 1
425 1 8.32034 0 1.38672 -62.0664 -61.0037 -59.5861 -1.88137 0.122094 0.0923863 71.151 1
426 1 9.0137 0.693361 1.38672 -59.7769 -59.6341 -60.8316 0.103123 -0.496287 0.260055 83.6505 0
465 1 8.32034 1.38672 1.38672 -59.617 -59.7404 -60.841 -0.0769783 -0.215879 -0.449614 73.074 1
29 1 9.70706 0 0 -60.0444 -63.1418 -62.6774 1.28594 1.19918 -3.32143 94.227 1
30 1 10.4004 0.693361 0 -62.7115 -60.3391 -62.1097 1.54171 2.81445 -1.38566 108.649 0
31 1 10.4004 0 0.693361 -60.3287 -59.5884 -63.5047 -0.0790051 -1.71406 -0.180896 108.649 1
32 1 9.70706 0.693361 0.693361 -59.8524 -59.5803 -59.9195 -0.00832049 0.304032 0.00928922 95.1885 0
69 1 9.70706 1.38672 0 -60.4429 -59.9685 -63.777 -0.578887 -1.9029 -1.27676 96.15 1
71 1 10.4004 1.38672 0.693361 -59.7374 -60.0537 -59.9313 0.2729 -0.235011 0.407816 110.572 1
429 1 9.70706 0 1.38672 -60.5419 -61.0988 -62.7721 1.20862 1.75219 -2.20176 96.15 1
430 1 10.4004 0.693361 1.38672 -61.1246 -63.8703 -59.9436 2.57419 -0.749317 1.24884 110.572 0
469 1 9.70706 1.38672 1.38672 -60.8557 -60.2442 -59.5856 0.920413 0.0841817 -0.0607396 98.073 1
33 1 11.0938 0 0 -60.8344 -63.6901 -61.1314 2.27052 1.39492 -2.52503 123.072 1
34 1 11.7871 0.693361 0 -59.5816 -63.4206 -60.1265 -0.0771757 -0.0291109 -1.44864 139.417 0
35 1 11.7871 0 0.693361 -61.5091 -59.6823 -60.4699 -0.444079 -1.31014 -0.301601 139.417 1
36 1 11.0938 0.693361 0.693361 -62.7112 -63.676 -59.6996 3.58117 0.611731 -0.69965 124.033 0
73 1 11.0938 1.38672 0 -62.7337 -61.551 -63.3927 -2.49309 -3.46748 -2.74125 124.995 1
75 1 11.7871 1.38672 0.693361 -60.4937 -60.1145 -59.7329 -0.698762 -0.373703 -0.28581 141.34 1
433 1 11.0938 0 1.38672 -60.3782 -60.398 -60.6061 0.807938 0.904912 -0.916039 124.995 1
434 1 11.7871 0.693361 1.38672 -61.4006 -62.6262 -60.0199 2.35486 -0.894843 1.15752 141.34 0
473 1 11.0938 1.38672 1.38672 -63.3547 -59.7395 -60.6386 -0.775807 1.99889 0.410835 126.918 1
37 1 12.4805 0 0 -59.6076 -62.3784 -59.6427 0.277506 -0.0415244 0.418724 155.763 1
38 1 13.1739 0.693361 0 -62.0181 -60.3824 -61.2498 1.39859 2.01764 -1.15743 174.031 0
39 1 13.1739 0 0.693361 -60.4858 -63.3078 -59.7997 -1.83751 -0.445989 -0.904779 174.031 1
40 1 12.4805 0.693361 0.693361 -61.2879 -60.1628 -63.1838 -0.997533 2.48079 1.44905 156.724 0
77 1 12.4805 1.38672 0 -59.9609 -62.9854 -59.7776 -1.13871 -0.274267 -0.820196 157.686 1
79 1 13.1739 1.38672 0.693361 -62.895 -61.1274 -59.8869 -2.26475 -1.00847 -0.688986 175.954 1
437 1 12.4805 0 1.38672 -59.6407 -60.839 -62.4891 -0.276222 0.419886 1.91368 157.686 1
438 1 13.1739 0.693361 1.38672 -61.5636 -62.7048 -61.451 -2.48954 -1.92639 -2.41788 175.954 0
477 1 12.4805 1.38672 1.38672 -60.3589 -60.6561 -62.185 0.915408 1.42429 -1.67419 159.609 1
42 1 0.693361 2.08008 0 -59.8213 -61.5868 -61.1267 0.695738 -0.610803 1.76172 4.8075 0
44 1 0 2.08008 0.693361 -59.5887 -59.824 -60.5847 -0.0458984 0.0931532 0.495017 4.8075 0
48 1 1.38672 2.08008 0.693361 -60.6202 -59.9222 -62.0213 0.596544 -1.5935 0.913904 6.7305 0
81 1 0 2.77345 0 -59.6896 -60.3877 -61.0027 0.297419 0.394742 -1.07183 7.692 1
83 1 0.693361 2.77345 0.693361 -60.713 -60.717 -61.4434 1.13492 1.45295 -1.45548 8.6535 1
85 1 1.38672 2.77345 0 -61.7677 -61.7423 -62.007 -2.17491 -2.30418 -2.29076 9.615 1
442 1 0.693361 2.08008 1.38672 -60.0415 -59.7815 -60.642 0.304835 -0.699939 0.462466 6.7305 0
481 1 0 2.77345 1.38672 -59.5971 -60.5173 -60.3627 0.126376 -0.115481 0.856432 9.615 1
485 1 1.38672 2.77345 1.38672 -59.7559 -62.7132 -60.1695 0.742254 -0.321949 1.35897 11.538 1
46 1 2.08008 2.08008 0 -59.603 -60.2231 -61.9896 -0.121436 -0.23507 -1.24476 8.6535 0
52 1 2.77345 2.08008 0.693361 -60.1317 -59.6943 -59.7145 0.251003 -0.272269 0.123902 12.4995 0
87 1 2.08008 2.77345 0.693361 -59.7966 -60.1582 -62.4113 -0.353762 -0.782886 -1.27933 12.4995 1
89 1 2.77345 2.77345 0 -60.1824 -60.1384 -60.1493 0.579859 0.585523 -0.563727 15.384 1
446 1 2.08008 2.08008 1.38672 -60.1632 -63.053 -60.4025 -1.42303 0.692486 1.69003 10.5765 0
489 1 2.77345 2.77345 1.38672 -59.7305 -60.001 -59.9036 -0.251608 0.220578 0.369036 17.307 1
50 1 3.46681 2.08008 0 -59.7696 -59.8583 -62.7859 -0.229609 0.779426 0.944395 16.3455 0
56 1 4.16017 2.08008 0.693361 -59.6518 -59.7889 -60.0158 0.122412 -0.176811 0.301632 22.1145 0
91 1 3.46681 2.77345 0.693361 -59.5946 -60.4199 -59.5935 0.110269 0.0139194 -0.10601 20.1915 1
93 1 4.16017 2.77345 0 -62.9746 -59.7017 -61.6631 -0.642578 2.65909 0.503366 24.999 1
450 1 3.46681 2.08008 1.38672 -60.4547 -61.1758 -59.8334 1.18135 0.470681 -0.635784 18.2685 0
493 1 4.16017 2.77345 1.38672 -60.5509 -62.1253 -59.6037 -1.57189 -0.151394 -0.245135 26.922 1
54 1 4.85353 2.08008 0 -60.6753 -62.2823 -59.6897 1.72036 -0.346504 0.544269 27.8835 0
60 1 5.54689 2.08008 0.693361 -59.8425 -60.0551 -59.8516 -0.353024 0.266928 0.359136 35.5755 0
95 1 4.85353 2.77345 0.693361 -63.3798 -59.7842 -59.5878 0.880777 -0.170903 0.0396151 31.7295 1
97 1 5.54689 2.77345 0 -59.7655 -60.2516 -60.6392 -0.352833 -0.443102 -0.84333 38.46 1
454 1 4.85353 2.08008 1.38672 -61.5826 -62.0376 -59.5898 2.21837 0.139432 -0.154462 29.8065 0
497 1 5.54689 2.77345 1.38672 -61.3644 -62.2787 -62.8247 -2.19432 -2.40608 -2.95903 40.383 1
58 1 6.24025 2.08008 0 -63.8694 -59.788 -61.0714 -0.94437 2.52914 0.556841 43.2675 0
62 1 7.62697 2.08008 0 -62.0123 -62.9246 -60.856 2.85213 1.7616 -2.06572 62.4975 0
64 1 6.93361 2.08008 0.693361 -60.771 -60.7982 -61.9694 1.20445 -1.68688 1.706 52.8825 0
99 1 6.24025 2.77345 0.693361 -59.5938 -61.7323 -60.6619 -0.17175 0.121764 1.52587 47.1135 1
101 1 6.93361 2.77345 0 -60.0337 -62.1497 -59.5815 -1.0796 -0.0250197 -0.0595507 55.767 1
103 1 7.62697 2.77345 0.693361 -61.6219 -63.3241 -59.607 2.7649 -0.234286 0.31725 66.3435 1
458 1 6.24025 2.08008 1.38672 -61.5831 -62.5928 -59.9995 2.45649 0.916504 -1.12402 45.1905 0
462 1 7.62697 2.08008 1.38672 -61.7631 -59.5879 -61.2524 0.130829 1.91063 -0.114507 64.4205 0
501 1 6.93361 2.77345 1.38672 -59.948 -59.962 -61.0742 0.374836 0.741375 -0.755402 57.69 1
66 1 9.0137 2.08008 0 -61.3225 -60.6106 -59.6001 1.34002 -0.186697 0.143578 85.5735 0
68 1 8.32034 2.08008 0.693361 -60.2287 -63.8584 -60.5606 -1.66585 -0.797506 -2.04821 74.0355 0
105 1 8.32034 2.77345 0 -61.663 -63.8672 -59.756 2.98822 -0.605369 0.868502 76.92 1
107 1 9.0137 2.77345 0.693361 -63.4419 -59.7619 -61.7371 0.838019 2.88615 -0.626306 89.4195 1
466 1 9.0137 2.08008 1.38672 -59.8897 -61.4518 -59.5909 0.761246 0.0578097 -0.142142 87.4965 0
505 1 8.32034 2.77345 1.38672 -63.8363 -63.676 -59.7514 4.17527 0.853997 -0.837758 78.843 1
70 1 10.4004 2.08008 0 -63.8391 -63.7399 -61.0091 -4.20912 2.46702 2.43814 112.495 0
72 1 9.70706 2.08008 0.693361 -60.6051 -59.6319 -63.1664 -0.230546 -1.9173 -0.431238 99.0345 0
109 1 9.70706 2.77345 0 -60.9124 -60.9253 -62.3618 1.33873 1.92511 -1.93444 101.919 1
111 1 10.4004 2.77345 0.693361 -61.505 -60.9658 -61.9847 1.63318 2.15143 -1.82541 116.341 1
470 1 10.4004 2.08008 1.38672 -59.6133 -62.1831 -60.0883 -0.29421 0.129996 1.15013 114.418 0
509 1 9.70706 2.77345 1.38672 -59.595 -60.0886 -62.1058 0.0871007 -0.19411 1.13334 103.842 1
74 1 11.7871 2.08008 0 -60.0539 -60.5087 -59.683 0.66335 -0.220844 0.309164 143.263 0
76 1 11.0938 2.08008 0.693361 -59.5872 -59.5931 -59.8598 0.00962849 -0.044585 0.0604004 127.879 0
113 1 11.0938 2.77345 0 -60.2592 -59.5831 -62.903 -0.0452798 -1.50217 -0.100161 130.764 1
115 1 11.7871 2.77345 0.693361 -60.2479 -59.584 -61.2628 -0.0512001 1.06008 0.0812741 147.109 1
474 1 11.7871 2.08008 1.38672 -60.9948 -60.6131 -61.0479 1.20885 -1.44097 1.23133 145.186 0
513 1 11.0938 2.77345 1.38672 -62.141 -60.1818 -63.4507 1.24138 -3.14839 1.52616 132.687 1
78 1 13.1739 2.08008 0 -60.0202 -59.5827 -59.7109 0.0338846 -0.239923 0.0184712 177.877 0
80 1 12.4805 2.08008 0.693361 -59.8843 -60.1498 -59.6309 -0.416338 0.12437 0.170186 160.57 0
117 1 12.4805 2.77345 0 -59.8712 -60.4928 -61.8929 -0.515456 -0.820543 -1.4529 163.455 1
119 1 13.1739 2.77345 0.693361 -60.5517 -60.7894 -63.2784 1.08397 1.89559 -2.11485 181.723 1
478 1 13.1739 2.08008 1.38672 -61.2688 -61.5553 -62.3901 1.82636 -2.1784 2.35592 179.8 0
517 1 12.4805 2.77345 1.38672 -60.2447 -62.4049 -59.6936 -1.37022 0.274706 0.566337 165.378 1
82 1 0.693361 3.46681 0 -59.9894 -63.1721 -61.0845 -1.21255 0.784706 2.32461 12.4995 0
84 1 0 3.46681 0.693361 -59.856 -63.8283 -60.3269 1.08262 -0.453929 1.78123 12.4995 0
88 1 1.38672 3.46681 0.693361 -59.5802 -59.7835 -60.8843 -0.00510651 0.0129302 0.515054 14.4225 0
121 1 0 4.16017 0 -63.062 -62.7305 -61.1924 3.31203 -2.36938 2.25379 17.307 1
123 1 0.693361 4.16017 0.693361 -62.2879 -61.0146 -63.8376 1.97093 -3.39538 2.47136 18.2685 1
125 1 1.38672 4.16017 0 -63.6579 -59.5803 -61.4117 -0.0290479 2.73296 0.0194678 19.23 1
482 1 0.693361 3.46681 1.38672 -60.9058 -62.9148 -61.6675 -2.10257 -1.66352 -2.63839 14.4225 0
521 1 0 4.16017 1.38672 -61.3441 -60.8554 -60.3597 1.49993 1.17272 -0.997135 19.23 1
525 1 1.38672 4.16017 1.38672 -60.013 -62.112 -60.5297 1.04694 0.641164 -1.55061 21.153 1
86 1 2.08008 3.46681 0 -59.8911 -61.5972 -61.315 -0.791996 0.734498 1.8707 16.3455 0
92 1 2.77345 3.46681 0.693361 -61.4483 -59.8684 -59.6781 0.733911 -0.428011 0.168141 20.1915 0
127 1 2.08008 4.16017 0.693361 -63.6637 -60.6656 -60.2218 2.10541 -1.61881 0.834622 22.1145 1
129 1 2.77345 4.16017 0 -62.7936 -59.6107 -61.4716 0.313797 -2.46546 0.240748 24.999 1
486 1 2.08008 3.46681 1.38672 -62.7679 -59.9892 -61.4086 -1.14202 2.41433 0.864931 18.2685 0
529 1 2.77345 4.16017 1.38672 -60.2625 -60.5322 -60.2249 -0.806096 0.663356 0.783554 26.922 1
90 1 3.46681 3.46681 0 -60.2537 -62.3178 -63.1478 1.358 1.55026 -3.12528 24.0375 0
96 1 4.16017 3.46681 0.693361 -62.3721 -60.6067 -60.2681 -1.69304 -1.38598 -0.840441 29.8065 0
131 1 3.46681 4.16017 0.693361 -59.9468 -60.5958 -60.9931 -0.610311 -0.719839 -1.19802 29.8065 1
133 1 4.16017 4.16017 0 -60.1096 -62.7261 -61.4919 -1.29073 1.00619 2.45248 34.614 1
490 1 3.46681 3.46681 1.38672 -59.6004 -59.6352 -59.7822 0.0334239 -0.0640104 0.105514 25.9605 0
533 1 4.16017 4.16017 1.38672 -62.5028 -63.9339 -62.6598 3.56721 -3.00022 3.66176 36.537 1
94 1 4.85353 3.46681 0 -60.2281 -61.5416 -59.9808 1.12741 -0.509584 0.886583 35.5755 0
100 1 5.54689 3.46681 0.693361 -59.6957 -61.9733 -60.5584 0.526107 -0.336369 1.53012 43.2675 0
135 1 4.85353 4.16017 0.693361 -60.9086 -61.9422 -59.6973 -1.77146 0.394607 0.526185 41.3445 1
137 1 5.54689 4.16017 0 -60.2877 -60.0044 -59.8544 -0.547923 -0.440541 -0.341138 48.075 1
494 1 4.85353 3.46681 1.38672 -60.1015 -59.6338 -61.313 0.167306 -0.950531 0.305013 37.4985 0
537 1 5.54689 4.16017 1.38672 -61.2589 -59.9925 -61.1493 -0.832127 -1.62307 -0.80451 49.998 1
98 1 6.24025 3.46681 0 -62.3409 -61.1221 -62.6016 2.0633 -2.88824 2.15853 50.9595 0
102 1 7.62697 3.46681 0 -60.9515 -61.1233 -62.1513 1.45476 1.87779 -1.99194 70.1895 0
104 1 6.93361 3.46681 0.693361 -59.5955 -62.809 -60.9738 -0.222732 -0.146335 -2.12136 60.5745 0
139 1 6.24025 4.16017 0.693361 -63.2132 -61.2559 -61.7472 -2.46745 2.80595 1.90566 56.7285 1
141 1 6.93361 4.16017 0 -60.4109 -60.1589 -60.5331 -0.693456 -0.889798 -0.742707 65.382 1
143 1 7.62697 4.16017 0.693361 -61.5494 -61.0702 -61.1376 -1.71302 -1.75132 -1.52341 75.9585 1
498 1 6.24025 3.46681 1.38672 -63.6563 -61.4994 -60.6571 2.79704 -2.09526 1.43772 52.8825 0
502 1 7.62697 3.46681 1.38672 -61.0491 -62.4322 -62.2448 -2.04688 1.97849 2.75683 72.1125 0
541 1 6.93361 4.16017 1.38672 -62.3876 -59.6381 -63.3741 0.403562 -3.26367 0.469135 67.305 1
106 1 9.0137 3.46681 0 -60.6066 -59.633 -63.7946 0.23295 -2.07992 0.472024 93.2655 0
108 1 8.32034 3.46681 0.693361 -60.6866 -61.1303 -59.8203 -1.30971 0.515526 0.610189 81.7275 0
145 1 8.32034 4.16017 0 -59.744 -62.5957 -63.5011 -0.703093 -0.801716 -3.43864 86.535 1
147 1 9.0137 4.16017 0.693361 -60.9507 -62.5919 -59.771 -2.03178 -0.511552 -0.758294 99.0345 1
506 1 9.0137 3.46681 1.38672 -59.9367 -60.1682 -59.8657 -0.457945 0.319102 0.409822 95.1885 0
545 1 8.32034 4.16017 1.38672 -60.0558 -60.1089 -63.6892 -0.50156 1.3981 1.47413 88.458 1
110 1 10.4004 3.46681 0 -59.6506 -61.3201 -59.7755 0.350338 -0.117404 0.583091 120.187 0
112 1 9.70706 3.46681 0.693361 -59.7873 -59.7306 -59.6297 0.176611 -0.101433 0.0864387 106.726 0
149 1 9.70706 4.16017 0 -62.5412 -61.5346 -60.548 2.40571 -1.69299 1.37545 111.534 1
151 1 10.4004 4.16017 0.693361 -60.3961 -59.5978 -60.7676 0.120355 -0.984398 0.145193 125.956 1
510 1 10.4004 3.46681 1.38672 -63.5175 -61.2914 -59.971 -2.59582 1.24071 0.817955 122.11 0
549 1 9.70706 4.16017 1.38672 -60.579 -62.7411 -60.8298 -1.77699 1.11731 1.98754 113.457 1
114 1 11.7871 3.46681 0 -61.1292 -59.8603 -59.5834 0.6588 -0.0715908 0.0304464 150.955 0
116 1 11.0938 3.46681 0.693361 -61.1137 -61.9436 -60.5606 1.90385 -1.22623 1.52231 135.571 0
153 1 11.0938 4.16017 0 -60.665 -63.6976 -62.068 2.11351 -1.64288 3.20061 140.379 1
155 1 11.7871 4.16017 0.693361 -61.2423 -62.3922 -60.7083 2.16206 -1.36947 1.78124 156.724 1
514 1 11.7871 3.46681 1.38672 -60.9837 -59.5904 -59.6486 -0.120378 -0.310032 -0.0265884 152.878 0
553 1 11.0938 4.16017 1.38672 -63.3169 -62.3635 -59.6119 -3.22508 -0.345047 -0.297794 142.302 1
118 1 13.1739 3.46681 0 -60.9809 -60.4501 -59.6662 -1.10398 -0.347306 -0.273707 185.569 0
120 1 12.4805 3.46681 0.693361 -59.9193 -63.1027 -60.9914 1.09316 0.691946 -2.22971 168.262 0
157 1 12.4805 4.16017 0 -61.9022 -59.5875 -60.4396 0.130796 1.41274 -0.0795747 173.07 1
159 1 13.1739 4.16017 0.693361 -62.5217 -60.344 -61.3694 1.49906 -2.29422 1.16914 191.338 1
518 1 13.1739 3.46681 1.38672 -62.1674 -59.7077 -60.405 -0.574589 1.46097 0.32445 187.492 0
557 1 12.4805 4.16017 1.38672 -63.5094 -61.1451 -61.4407 -2.47977 2.70388 1.7064 174.993 1
122 1 0.693361 4.85353 0 -60.5304 -59.8213 -60.0589 0.478802 -0.674583 0.339883 24.0375 0
124 1 0 4.85353 0.693361 -61.1905 -63.1704 -59.5846 -2.40456 0.0850239 0.126952 24.0375 0
128 1 1.38672 4.85353 0.693361 -60.0442 -59.8474 -62.3726 -0.35225 -1.13848 -0.864029 25.9605 0
161 1 0 5.54689 0 -61.0662 -63.1465 -62.0234 2.30218 1.90549 -2.95192 30.768 1
163 1 0.693361 5.54689 0.693361 -61.6182 -60.1823 -59.6659 -1.10789 0.418136 0.227297 31.7295 1
165 1 1.38672 5.54689 0 -63.2412 -59.8794 -60.2929 1.0468 -1.61549 0.461912 32.691 1
522 1 0.693361 4.85353 1.38672 -59.6957 -63.7374 -60.4683 -0.693341 -0.320485 -1.92166 25.9605 0
561 1 0 5.54689 1.38672 -60.4063 -60.9683 -61.2349 1.07095 -1.16926 1.51564 32.691 1
565 1 1.38672 5.54689 1.38672 -59.6829 -60.1883 -61.0049 -0.250079 -0.382767 -0.930909 34.614 1
126 1 2.08008 4.85353 0 -60.4236 -61.9756 -61.456 -1.42154 1.25794 2.11984 27.8835 0
132 1 2.77345 4.85353 0.693361 -59.599 -62.2265 -59.5918 0.223861 0.0149095 -0.176254 31.7295 0
167 1 2.08008 5.54689 0.693361 -63.1264 -59.6008 -62.2854 0.27083 -3.09737 0.236545 35.5755 1
169 1 2.77345 5.54689 0 -62.3313 -60.9531 -63.4132 1.94355 -3.24739 2.29408 38.46 1
526 1 2.08008 4.85353 1.38672 -60.5804 -60.3083 -60.7016 -0.853486 -1.0592 -0.903722 29.8065 0
569 1 2.77345 5.54689 1.38672 -60.5029 -60.2779 -63.5933 0.802457 1.92445 -1.67343 40.383 1
130 1 3.46681 4.85353 0 -63.6502 -63.8685 -59.6462 -4.17782 -0.518784 -0.532517 35.5755 0
136 1 4.16017 4.85353 0.693361 -59.8674 -59.6479 -60.3271 0.139536 0.463265 -0.224996 41.3445 0
171 1 3.46681 5.54689 0.693361 -63.0452 -62.5984 -61.9629 -3.23404 2.87349 2.68185 43.2675 1
173 1 4.16017 5.54689 0 -60.0122 -59.8024 -61.4421 -0.309959 0.896971 0.643446 48.075 1
530 1 3.46681 4.85353 1.38672 -59.8579 -59.9525 -59.745 0.321665 0.214075 -0.247869 37.4985 0
573 1 4.16017 5.54689 1.38672 -59.8882 -59.5923 -61.6253 0.0612617 0.793818 -0.157836 49.998 1
134 1 4.85353 4.85353 0 -62.7563 -59.6087 -59.5875 -0.301519 0.152962 0.0145208 47.1135 0
140 1 5.54689 4.85353 0.693361 -62.4487 -60.7163 -60.4305 -1.80541 -1.56192 -0.983016 54.8055 0
175 1 4.85353 5.54689 0.693361 -59.7448 -59.6617 -63.001 0.115913 0.750579 -0.528292 54.8055 1
177 1 5.54689 5.54689 0 -63.5796 -61.0903 -62.2969 -2.45769 3.29637 2.02559 61.536 1
534 1 4.85353 4.85353 1.38672 -60.758 -62.9007 -61.1237 -1.97768 1.3484 2.26402 49.0365 0
577 1 5.54689 5.54689 1.38672 -61.0936 -59.5959 -59.9762 -0.154597 -0.774247 -0.0790868 63.459 1
138 1 6.24025 4.85353 0 -63.5409 -61.3414 -62.6031 -2.64127 -3.46026 -2.30749 62.4975 0
142 1 7.62697 4.85353 0 -61.1842 -60.7334 -63.3116 1.36019 2.44662 -2.07454 81.7275 0
144 1 6.93361 4.85353 0.693361 -62.8161 -60.5782 -59.6249 -1.7972 0.3807 0.211431 72.1125 0
179 1 6.24025 5.54689 0.693361 -59.9939 -61.0625 -61.3674 -0.783209 0.859991 1.62775 70.1895 1
181 1 6.93361 5.54689 0 -62.4532 -62.891 -59.5917 3.08425 -0.182518 0.195933 78.843 1
183 1 7.62697 5.54689 0.693361 -61.4392 -60.3524 -59.9979 -1.19828 -0.881354 -0.568056 89.4195 1
538 1 6.24025 4.85353 1.38672 -61.4423 -59.59 -63.8457 -0.136138 -2.81844 -0.206041 64.4205 0
542 1 7.62697 4.85353 1.38672 -60.7247 -60.0962 -59.5924 -0.76862 0.118488 0.0795634 83.6505 0
581 1 6.93361 5.54689 1.38672 -59.5801 -59.592 -60.2174 -1.05456e-05 7.70669e-05 0.0872148 80.766 1
146 1 9.0137 4.85353 0 -59.7047 -60.2657 -59.5847 0.292292 -0.0240956 0.0565223 104.803 0
148 1 8.32034 4.85353 0.693361 -59.6893 -63.3732 -60.1925 -0.643591 -0.258599 -1.52409 93.2655 0
185 1 8.32034 5.54689 0 -63.0839 -60.8262 -62.3854 -2.0895 -3.13519 -1.86967 99.996 1
187 1 9.0137 5.54689 0.693361 -61.6823 -60.2675 -61.2609 -1.20211 -1.87972 -1.0749 112.495 1
546 1 9.0137 4.85353 1.38672 -61.0506 -62.176 -59.8052 1.95375 -0.575391 0.7645 106.726 0
585 1 8.32034 5.54689 1.38672 -61.3998 -60.7866 -62.4297 1.48174 2.27715 -1.85421 101.919 1
150 1 10.4004 4.85353 0 -61.6126 -62.4102 -61.2821 2.39837 1.85993 -2.19472 131.725 0
152 1 9.70706 4.85353 0.693361 -61.585 -62.2884 -61.293 -2.33022 -1.85318 -2.15383 118.264 0
189 1 9.70706 5.54689 0 -59.5879 -63.3937 -61.6139 0.173122 0.126428 -2.78503 124.995 1
191 1 10.4004 5.54689 0.693361 -61.4952 -60.6076 -59.5837 1.40279 -0.08291 0.0607305 139.417 1
550 1 10.4004 4.85353 1.38672 -61.7908 -60.0923 -59.6166 1.06412 0.284154 -0.136774 133.648 0
589 1 9.70706 5.54689 1.38672 -60.416 -60.059 -62.7202 -0.632683 -1.62011 -1.22627 126.918 1
154 1 11.7871 4.85353 0 -63.5737 -61.3264 -62.8195 -2.64084 3.59681 2.37844 162.493 0
156 1 11.0938 4.85353 0.693361 -59.5801 -59.5922 -59.7142 0.000200186 -0.000665009 0.0403645 147.109 0
193 1 11.0938 5.54689 0 -60.188 -61.5491 -60.0128 -1.09403 0.512845 0.923012 153.84 1
195 1 11.7871 5.54689 0.693361 -59.6322 -59.6208 -61.4165 -0.0460754 0.309486 0.273405 170.185 1
554 1 11.7871 4.85353 1.38672 -61.7793 -60.0858 -62.7295 -1.05455 -2.63177 -1.26195 164.416 0
593 1 11.0938 5.54689 1.38672 -61.422 -60.1783 -63.4086 1.0497 2.65548 -1.51338 155.763 1
158 1 13.1739 4.85353 0 -60.5892 -59.5835 -61.8223 -0.0586307 -1.50425 -0.0873951 197.107 0
160 1 12.4805 4.85353 0.693361 -59.9922 -59.6702 -59.5901 0.192658 -0.0642771 0.0300506 179.8 0
197 1 12.4805 5.54689 0 -61.3821 -60.3468 -60.2588 -1.17546 -1.10597 -0.721413 186.531 1
199 1 13.1739 5.54689 0.693361 -59.5937 -61.8809 -59.7222 0.176831 -0.0439487 0.571834 204.799 1
558 1 13.1739 4.85353 1.38672 -59.7836 -63.6048 -60.2788 -0.905145 0.377138 1.67696 199.03 0
597 1 12.4805 5.54689 1.38672 -59.6285 -62.4065 -59.9658 0.369908 -0.136654 1.04413 188.454 1
162 1 0.693361 6.24025 0 -59.6935 -60.2143 -59.8834 0.268155 -0.185458 0.438605 39.4215 0
164 1 0 6.24025 0.693361 -61.0593 -63.8215 -59.6252 -2.5048 -0.25834 -0.437445 39.4215 0
168 1 1.38672 6.24025 0.693361 -61.4817 -61.1199 -60.0992 1.71114 -0.993583 0.894079 41.3445 0
201 1 0 6.93361 0 -59.6471 -62.7848 -59.6438 0.463563 0.0653607 -0.451851 48.075 1
202 1 0.693361 7.62697 0 -60.634 -59.6511 -59.9549 -0.27356 -0.628473 -0.163128 58.6515 0
203 1 0.693361 6.93361 0.693361 -60.1255 -62.3914 -61.7124 -1.23828 1.07841 2.44837 49.0365 1
204 1 0 7.62697 0.693361 -61.5505 -59.6044 -59.5962 0.218704 0.178312 -0.0197912 58.6515 0
205 1 1.38672 6.93361 0 -59.9492 -61.6598 -59.617 -0.876203 0.116728 0.277066 49.998 1
208 1 1.38672 7.62697 0.693361 -60.2347 -63.2402 -59.898 -1.54787 0.456157 1.07862 60.5745 0
562 1 0.693361 6.24025 1.38672 -61.1964 -59.9205 -60.5525 0.741791 -1.25366 0.575349 41.3445 0
601 1 0 6.93361 1.38672 -61.6534 -60.0254 -62.6937 -0.96084 -2.5408 -1.17747 49.998 1
602 1 0.693361 7.62697 1.38672 -63.3673 -59.8997 -61.1223 -1.10028 2.41678 0.702138 60.5745 0
605 1 1.38672 6.93361 1.38672 -60.5096 -60.7019 -60.9369 1.02111 -1.12301 1.23374 51.921 1
166 1 2.08008 6.24025 0 -60.4662 -60.8124 -63.7742 1.04494 -1.92777 2.2734 43.2675 0
172 1 2.77345 6.24025 0.693361 -59.5839 -60.0323 -62.5795 0.0414777 0.106823 -1.16461 47.1135 0
206 1 2.08008 7.62697 0 -60.497 -61.9927 -59.6319 -1.48735 0.218037 0.353679 62.4975 0
207 1 2.08008 6.93361 0.693361 -59.581 -60.0589 -61.1861 0.0211006 0.0386437 -0.87695 52.8825 1
209 1 2.77345 6.93361 0 -60.3285 -63.7979 -59.6652 -1.77667 -0.252408 -0.599223 55.767 1
212 1 2.77345 7.62697 0.693361 -59.6049 -61.8896 -63.7276 -0.239607 -0.321096 -3.09498 66.3435 0
566 1 2.08008 6.24025 1.38672 -61.852 -59.7073 -62.573 -0.537544 -2.60759 -0.616969 45.1905 0
606 1 2.08008 7.62697 1.38672 -60.8411 -62.2674 -61.8816 1.84086 -1.7036 2.48692 64.4205 0
609 1 2.77345 6.93361 1.38672 -61.2252 -62.1426 -59.5805 2.05317 0.0247862 -0.0309348 57.69 1
170 1 3.46681 6.24025 0 -62.568 -59.6154 -63.1891 -0.324723 3.28378 0.35688 50.9595 0
176 1 4.16017 6.24025 0.693361 -62.8877 -63.6792 -62.7488 3.68217 3.23745 -3.60402 56.7285 0
210 1 3.46681 7.62697 0 -61.7115 -60.0299 -59.7441 0.979151 0.591247 -0.271608 70.1895 0
211 1 3.46681 6.93361 0.693361 -60.5377 -59.7425 -60.4037 -0.394382 0.888111 0.365741 60.5745 1
213 1 4.16017 6.93361 0 -60.8837 -62.1438 -62.6118 1.82817 -1.98804 2.78794 65.382 1
216 1 4.16017 7.62697 0.693361 -59.6712 -60.4774 -62.1945 -0.286004 0.488202 1.53162 75.9585 0
570 1 3.46681 6.24025 1.38672 -60.9813 -59.8459 -60.9355 -0.610246 -1.3781 -0.600183 52.8825 0
610 1 3.46681 7.62697 1.38672 -60.468 -62.8939 -60.6944 -1.71535 -0.994694 -1.9216 72.1125 0
613 1 4.16017 6.93361 1.38672 -63.1211 -60.6452 -59.5844 -1.942 -0.123482 -0.0677225 67.305 1
174 1 4.85353 6.24025 0 -59.9163 -59.7176 -63.27 -0.214992 1.11385 0.712216 62.4975 0
180 1 5.54689 6.24025 0.693361 -60.4802 -63.6157 -60.5126 1.90595 -0.916179 1.93992 70.1895 0
214 1 4.85353 7.62697 0 -60.9381 -63.9292 -59.7473 2.43024 0.476463 -0.852677 81.7275 0
215 1 4.85353 6.93361 0.693361 -59.9201 -61.793 -61.6576 -0.867464 0.84051 2.14413 72.1125 1
217 1 5.54689 6.93361 0 -59.7176 -62.8491 -61.7096 -0.670403 -0.541095 -2.63845 78.843 1
220 1 5.54689 7.62697 0.693361 -60.1068 -62.162 -62.394 1.1662 1.21746 -2.69544 89.4195 0
574 1 4.85353 6.24025 1.38672 -62.6923 -59.8007 -60.0491 0.828642 1.20822 -0.321692 64.4205 0
614 1 4.85353 7.62697 1.38672 -62.1089 -62.6325 -59.6968 -2.77828 -0.543311 -0.596913 83.6505 0
617 1 5.54689 6.93361 1.38672 -60.3131 -63.4764 -63.0954 -1.69001 1.60525 3.7009 80.766 1
178 1 6.24025 6.24025 0 -60.1833 -61.5088 -62.7219 -1.07866 1.37669 2.46167 77.8815 0
182 1 7.62697 6.24025 0 -62.3717 -59.7222 -61.0581 -0.629948 2.03131 0.458373 97.1115 0
184 1 6.93361 6.24025 0.693361 -59.5815 -60.0414 -63.7335 -0.0251366 -0.0754259 -1.38418 87.4965 0
218 1 6.24025 7.62697 0 -59.596 -63.2338 -60.3344 -0.241331 -0.109652 -1.66008 97.1115 0
219 1 6.24025 6.93361 0.693361 -61.4327 -63.2517 -60.0877 -2.60807 -0.969742 -1.3652 87.4965 1
221 1 6.93361 6.93361 0 -62.4678 -59.5943 -59.8739 0.202491 -0.921177 0.0645944 96.15 1
222 1 7.62697 7.62697 0 -62.7522 -61.8362 -59.5843 -2.67519 0.116196 0.0979947 116.341 0
223 1 7.62697 6.93361 0.693361 -62.8703 -59.8685 -59.5838 -0.974058 -0.109845 -0.0325193 106.726 1
224 1 6.93361 7.62697 0.693361 -60.4916 -59.5817 -59.6707 0.0383699 -0.28745 0.0120998 106.726 0
578 1 6.24025 6.24025 1.38672 -59.5979 -60.3839 -59.7374 -0.119801 0.0529928 0.355576 79.8045 0
582 1 7.62697 6.24025 1.38672 -59.9544 -60.0929 -61.5969 -0.438101 0.868841 1.01693 99.0345 0
618 1 6.24025 7.62697 1.38672 -62.2646 -59.5801 -60.8536 -0.00290799 1.84901 0.00200294 99.0345 0
621 1 6.93361 6.93361 1.38672 -59.6508 -59.9771 -61.2783 0.167534 0.346484 -0.821125 98.073 1
622 1 7.62697 7.62697 1.38672 -59.7848 -62.955 -62.1806 -0.831106 0.729552 2.96249 118.264 0
186 1 9.0137 6.24025 0 -62.6999 -63.4794 -62.8633 3.48782 3.20048 -3.57803 120.187 0
188 1 8.32034 6.24025 0.693361 -60.0381 -59.7196 -62.56 0.252747 1.16826 -0.644681 108.649 0
225 1 8.32034 6.93361 0 -59.7506 -62.2277 -63.0093 0.671871 0.764641 -3.0132 117.303 1