LAMMPS data file for Nanoparticles
12 atoms
1 atom types
0 20 xlo xhi
0 20 ylo yhi
0 20 zlo zhi

Atoms # full

1 0 1 0.000000 4.253000 12.759000 63.506001
2 0 1 0.000000 4.253000 12.759000 106.036003
3 0 1 0.000000 8.506000 4.253000 67.759003
4 1 1 0.000000 0.000000 4.253000 67.759003
5 1 1 0.000000 12.759000 8.506000 59.252998
6 1 1 0.000000 12.759000 17.011999 59.252998
7 2 1 0.000000 12.759000 4.253000 63.506001
8 2 1 0.000000 12.759000 4.253000 55.000000
9 2 1 0.000000 4.253000 8.506000 67.759003
10 3 1 0.000000 4.253000 0.000000 67.759003
11 3 1 0.000000 8.506000 12.759000 59.252998
12 3 1 0.000000 17.011999 12.759000 59.252998
