LAMMPS data file. CGCMM style. atom_style full generated by VMD/TopoTools v1.5 on Thu Jun 22 17:18:39 CEST 2017
 7772 atoms
 6248 bonds
 8100 angles
 10720 dihedrals
 1376 impropers
 11 atom types
 8 bond types
 12 angle types
 14 dihedral types
 3 improper types
 -0.103000 33.920998  xlo xhi
 -0.066000 33.957998  ylo yhi
 -0.885501 162.150494  zlo zhi

# Pair Coeffs
#
# 1  C1
# 2  C2
# 3  C3
# 4  Cl
# 5  H2
# 6  H3
# 7  Hw
# 8  Li
# 9  N
# 10  Ow
# 11  Zn

# Bond Coeffs
#
# 1  C1-C3
# 2  C1-N
# 3  C2-C2
# 4  C2-H2
# 5  C2-N
# 6  C3-H3
# 7  Hw-Ow
# 8  N-Zn

# Angle Coeffs
#
# 1  C1-C3-H3
# 2  C1-N-C2
# 3  C1-N-Zn
# 4  C2-C2-H2
# 5  C2-C2-N
# 6  C2-N-Zn
# 7  C3-C1-N
# 8  H2-C2-N
# 9  H3-C3-H3
# 10  Hw-Ow-Hw
# 11  N-C1-N
# 12  N-Zn-N

# Dihedral Coeffs
#
# 1  C1-N-Zn-N
# 2  C2-C2-N-C1
# 3  C2-C2-N-Zn
# 4  C2-N-Zn-N
# 5  C3-C1-N-C2
# 6  C3-C1-N-Zn
# 7  H2-C2-C2-H2
# 8  H2-C2-C2-N
# 9  H2-C2-N-C1
# 10  H2-C2-N-Zn
# 11  N-C1-C3-H3
# 12  N-C1-N-C2
# 13  N-C1-N-Zn
# 14  N-C2-C2-N

# Improper Coeffs
#
# 1  C1-C2-N-Zn
# 2  C2-H2-C2-N
# 3  C3-N-C1-N

 Masses

 1 42.0 # C1
 2 12.010700 # C2
 3 12.010700 # C3
 4 12.011000 # Cl
 5 1.007940 # H2
 6 1.007940 # H3
 7 1.008000 # Hw
 8 12.000000 # Li
 9 14.006700 # N
 10 15.999000 # Ow
 11 65.408997 # Zn

 Atoms

1 1 11 0.000000 4.253000 12.759000 63.506001 # Zn RES
2 2 11 0.000000 4.253000 12.759000 106.036003 # Zn RES
3 3 11 0.000000 8.506000 4.253000 67.759003 # Zn RES
4 4 11 0.000000 0.000000 4.253000 67.759003 # Zn RES
5 5 11 0.000000 12.759000 8.506000 59.252998 # Zn RES
6 6 11 0.000000 12.759000 17.011999 59.252998 # Zn RES
7 7 11 0.000000 12.759000 4.253000 63.506001 # Zn RES
8 8 11 0.000000 12.759000 4.253000 55.000000 # Zn RES
9 9 11 0.000000 4.253000 8.506000 67.759003 # Zn RES
10 10 11 0.000000 4.253000 0.000000 67.759003 # Zn RES
11 11 11 0.000000 8.506000 12.759000 59.252998 # Zn RES
12 12 11 0.000000 17.011999 12.759000 59.252998 # Zn RES
13 13 1 0.000000 2.163000 12.861000 61.342999 # C1 RES
14 14 1 0.000000 6.343000 12.657000 61.342999 # C1 RES
15 15 1 0.000000 6.343000 12.861000 57.162998 # C1 RES
16 16 1 0.000000 2.163000 12.657000 57.162998 # C1 RES
17 17 1 0.000000 6.343000 2.163000 67.861000 # C1 RES
18 18 1 0.000000 6.343000 6.343000 67.656998 # C1 RES
19 19 1 0.000000 2.163000 6.343000 67.861000 # C1 RES
20 20 1 0.000000 2.163000 2.163000 67.656998 # C1 RES
21 21 1 0.000000 12.861000 6.343000 57.162998 # C1 RES
22 22 1 0.000000 12.657000 6.343000 61.342999 # C1 RES
23 23 1 0.000000 12.861000 2.163000 61.342999 # C1 RES
24 24 1 0.000000 12.657000 2.163000 57.162998 # C1 RES
25 25 1 0.000000 10.668000 4.355000 69.848999 # C1 RES
26 26 1 0.000000 14.849000 4.151000 69.848999 # C1 RES
27 27 1 0.000000 14.849000 4.355000 65.667999 # C1 RES
28 28 1 0.000000 10.668000 4.151000 65.667999 # C1 RES
29 29 1 0.000000 14.849000 10.668000 59.355000 # C1 RES
30 30 1 0.000000 14.849000 14.849000 59.151001 # C1 RES
31 31 1 0.000000 10.668000 14.849000 59.355000 # C1 RES
32 32 1 0.000000 10.668000 10.668000 59.151001 # C1 RES
33 33 1 0.000000 4.355000 14.849000 65.667999 # C1 RES
34 34 1 0.000000 4.151000 14.849000 69.848999 # C1 RES
35 35 1 0.000000 4.355000 10.668000 69.848999 # C1 RES
36 36 1 0.000000 4.151000 10.668000 65.667999 # C1 RES
37 37 2 0.000000 2.061000 10.966000 62.411999 # C2 RES
38 38 2 0.000000 6.445000 14.552000 62.411999 # C2 RES
39 39 2 0.000000 6.445000 10.966000 56.094002 # C2 RES
40 40 2 0.000000 2.061000 14.552000 56.094002 # C2 RES
41 41 2 0.000000 7.412000 2.061000 65.966003 # C2 RES
42 42 2 0.000000 7.412000 6.445000 69.552002 # C2 RES
43 43 2 0.000000 1.094000 6.445000 65.966003 # C2 RES
44 44 2 0.000000 1.094000 2.061000 69.552002 # C2 RES
45 45 2 0.000000 10.966000 7.412000 57.061001 # C2 RES
46 46 2 0.000000 14.552000 7.412000 61.445000 # C2 RES
47 47 2 0.000000 10.966000 1.094000 61.445000 # C2 RES
48 48 2 0.000000 14.552000 1.094000 57.061001 # C2 RES
49 49 2 0.000000 10.966000 2.061000 62.411999 # C2 RES
50 50 2 0.000000 14.552000 6.445000 62.411999 # C2 RES
51 51 2 0.000000 10.966000 6.445000 56.094002 # C2 RES
52 52 2 0.000000 14.552000 2.061000 56.094002 # C2 RES
53 53 2 0.000000 2.061000 7.412000 65.966003 # C2 RES
54 54 2 0.000000 6.445000 7.412000 69.552002 # C2 RES
55 55 2 0.000000 6.445000 1.094000 65.966003 # C2 RES
56 56 2 0.000000 2.061000 1.094000 69.552002 # C2 RES
57 57 2 0.000000 7.412000 10.966000 57.061001 # C2 RES
58 58 2 0.000000 7.412000 14.552000 61.445000 # C2 RES
59 59 2 0.000000 1.094000 10.966000 61.445000 # C2 RES
60 60 2 0.000000 1.094000 14.552000 57.061001 # C2 RES
61 61 2 0.000000 10.567000 2.460000 70.917999 # C2 RES
62 62 2 0.000000 14.951000 6.046000 70.917999 # C2 RES
63 63 2 0.000000 14.951000 2.460000 64.598999 # C2 RES
64 64 2 0.000000 10.567000 6.046000 64.598999 # C2 RES
65 65 2 0.000000 15.918000 10.567000 57.459999 # C2 RES
66 66 2 0.000000 15.918000 14.951000 61.046001 # C2 RES
67 67 2 0.000000 9.599000 14.951000 57.459999 # C2 RES
68 68 2 0.000000 9.599000 10.567000 61.046001 # C2 RES
69 69 2 0.000000 2.460000 15.918000 65.567001 # C2 RES
70 70 2 0.000000 6.046000 15.918000 69.950996 # C2 RES
71 71 2 0.000000 2.460000 9.599000 69.950996 # C2 RES
72 72 2 0.000000 6.046000 9.599000 65.567001 # C2 RES
73 73 2 0.000000 2.460000 10.567000 70.917999 # C2 RES
74 74 2 0.000000 6.046000 14.951000 70.917999 # C2 RES
75 75 2 0.000000 2.460000 14.951000 64.598999 # C2 RES
76 76 2 0.000000 6.046000 10.567000 64.598999 # C2 RES
77 77 2 0.000000 10.567000 15.918000 57.459999 # C2 RES
78 78 2 0.000000 14.951000 15.918000 61.046001 # C2 RES
79 79 2 0.000000 14.951000 9.599000 57.459999 # C2 RES
80 80 2 0.000000 10.567000 9.599000 61.046001 # C2 RES
81 81 2 0.000000 15.918000 2.460000 65.567001 # C2 RES
82 82 2 0.000000 15.918000 6.046000 69.950996 # C2 RES
83 83 2 0.000000 9.599000 2.460000 69.950996 # C2 RES
84 84 2 0.000000 9.599000 6.046000 65.567001 # C2 RES
85 85 5 0.000000 2.322000 10.207000 63.133999 # H2 RES
86 86 5 0.000000 6.184000 15.310000 63.133999 # H2 RES
87 87 5 0.000000 6.184000 10.207000 55.370998 # H2 RES
88 88 5 0.000000 2.322000 15.310000 55.370998 # H2 RES
89 89 5 0.000000 8.134000 2.322000 65.207001 # H2 RES
90 90 5 0.000000 8.134000 6.184000 70.309998 # H2 RES
91 91 5 0.000000 0.371000 6.184000 65.207001 # H2 RES
92 92 5 0.000000 0.371000 2.322000 70.309998 # H2 RES
93 93 5 0.000000 10.207000 8.134000 57.321999 # H2 RES
94 94 5 0.000000 15.310000 8.134000 61.183998 # H2 RES
95 95 5 0.000000 10.207000 0.371000 61.183998 # H2 RES
96 96 5 0.000000 15.310000 0.371000 57.321999 # H2 RES
97 97 5 0.000000 10.207000 2.322000 63.133999 # H2 RES
98 98 5 0.000000 15.310000 6.184000 63.133999 # H2 RES
99 99 5 0.000000 10.207000 6.184000 55.370998 # H2 RES
100 100 5 0.000000 15.310000 2.322000 55.370998 # H2 RES
101 101 5 0.000000 2.322000 8.134000 65.207001 # H2 RES
102 102 5 0.000000 6.184000 8.134000 70.309998 # H2 RES
103 103 5 0.000000 6.184000 0.371000 65.207001 # H2 RES
104 104 5 0.000000 2.322000 0.371000 70.309998 # H2 RES
105 105 5 0.000000 8.134000 10.207000 57.321999 # H2 RES
106 106 5 0.000000 8.134000 15.310000 61.183998 # H2 RES
107 107 5 0.000000 0.371000 10.207000 61.183998 # H2 RES
108 108 5 0.000000 0.371000 15.310000 57.321999 # H2 RES
109 109 5 0.000000 10.828000 1.701000 71.639999 # H2 RES
110 110 5 0.000000 14.689000 6.805000 71.639999 # H2 RES
111 111 5 0.000000 14.689000 1.701000 63.876999 # H2 RES
112 112 5 0.000000 10.828000 6.805000 63.876999 # H2 RES
113 113 5 0.000000 16.639999 10.828000 56.701000 # H2 RES
114 114 5 0.000000 16.639999 14.689000 61.805000 # H2 RES
115 115 5 0.000000 8.877000 14.689000 56.701000 # H2 RES
116 116 5 0.000000 8.877000 10.828000 61.805000 # H2 RES
117 117 5 0.000000 1.701000 16.639999 65.828003 # H2 RES
118 118 5 0.000000 6.805000 16.639999 69.689003 # H2 RES
119 119 5 0.000000 1.701000 8.877000 69.689003 # H2 RES
120 120 5 0.000000 6.805000 8.877000 65.828003 # H2 RES
121 121 5 0.000000 1.701000 10.828000 71.639999 # H2 RES
122 122 5 0.000000 6.805000 14.689000 71.639999 # H2 RES
123 123 5 0.000000 1.701000 14.689000 63.876999 # H2 RES
124 124 5 0.000000 6.805000 10.828000 63.876999 # H2 RES
125 125 5 0.000000 10.828000 16.639999 56.701000 # H2 RES
126 126 5 0.000000 14.689000 16.639999 61.805000 # H2 RES
127 127 5 0.000000 14.689000 8.877000 56.701000 # H2 RES
128 128 5 0.000000 10.828000 8.877000 61.805000 # H2 RES
129 129 5 0.000000 16.639999 1.701000 65.828003 # H2 RES
130 130 5 0.000000 16.639999 6.805000 69.689003 # H2 RES
131 131 5 0.000000 8.877000 1.701000 69.689003 # H2 RES
132 132 5 0.000000 8.877000 6.805000 65.828003 # H2 RES
133 133 3 0.000000 2.631000 14.193000 60.875000 # C3 RES
134 134 3 0.000000 5.875000 11.325000 60.875000 # C3 RES
135 135 3 0.000000 5.875000 14.193000 57.631001 # C3 RES
136 136 3 0.000000 2.631000 11.325000 57.631001 # C3 RES
137 137 3 0.000000 5.875000 2.631000 69.193001 # C3 RES
138 138 3 0.000000 5.875000 5.875000 66.324997 # C3 RES
139 139 3 0.000000 2.631000 5.875000 69.193001 # C3 RES
140 140 3 0.000000 2.631000 2.631000 66.324997 # C3 RES
141 141 3 0.000000 14.193000 5.875000 57.631001 # C3 RES
142 142 3 0.000000 11.325000 5.875000 60.875000 # C3 RES
143 143 3 0.000000 14.193000 2.631000 60.875000 # C3 RES
144 144 3 0.000000 11.325000 2.631000 57.631001 # C3 RES
145 145 3 0.000000 11.137000 5.687000 69.380997 # C3 RES
146 146 3 0.000000 14.381000 2.819000 69.380997 # C3 RES
147 147 3 0.000000 14.381000 5.687000 66.137001 # C3 RES
148 148 3 0.000000 11.137000 2.819000 66.137001 # C3 RES
149 149 3 0.000000 14.381000 11.137000 60.687000 # C3 RES
150 150 3 0.000000 14.381000 14.381000 57.819000 # C3 RES
151 151 3 0.000000 11.137000 14.381000 60.687000 # C3 RES
152 152 3 0.000000 11.137000 11.137000 57.819000 # C3 RES
153 153 3 0.000000 5.687000 14.381000 66.137001 # C3 RES
154 154 3 0.000000 2.819000 14.381000 69.380997 # C3 RES
155 155 3 0.000000 5.687000 11.137000 69.380997 # C3 RES
156 156 3 0.000000 2.819000 11.137000 66.137001 # C3 RES
157 157 6 0.000000 5.441000 14.769000 56.812000 # H3 RES
158 158 6 0.000000 3.065000 10.748000 56.812000 # H3 RES
159 159 6 0.000000 3.065000 14.769000 61.693001 # H3 RES
160 160 6 0.000000 5.441000 10.748000 61.693001 # H3 RES
161 161 6 0.000000 1.812000 5.441000 69.768997 # H3 RES
162 162 6 0.000000 1.812000 3.065000 65.748001 # H3 RES
163 163 6 0.000000 6.693000 3.065000 69.768997 # H3 RES
164 164 6 0.000000 6.693000 5.441000 65.748001 # H3 RES
165 165 6 0.000000 14.769000 1.812000 60.441002 # H3 RES
166 166 6 0.000000 10.748000 1.812000 58.064999 # H3 RES
167 167 6 0.000000 14.769000 6.693000 58.064999 # H3 RES
168 168 6 0.000000 10.748000 6.693000 60.441002 # H3 RES
169 169 6 0.000000 14.769000 5.441000 56.812000 # H3 RES
170 170 6 0.000000 10.748000 3.065000 56.812000 # H3 RES
171 171 6 0.000000 14.769000 3.065000 61.693001 # H3 RES
172 172 6 0.000000 10.748000 5.441000 61.693001 # H3 RES
173 173 6 0.000000 5.441000 1.812000 69.768997 # H3 RES
174 174 6 0.000000 3.065000 1.812000 65.748001 # H3 RES
175 175 6 0.000000 3.065000 6.693000 69.768997 # H3 RES
176 176 6 0.000000 5.441000 6.693000 65.748001 # H3 RES
177 177 6 0.000000 1.812000 14.769000 60.441002 # H3 RES
178 178 6 0.000000 1.812000 10.748000 58.064999 # H3 RES
179 179 6 0.000000 6.693000 14.769000 58.064999 # H3 RES
180 180 6 0.000000 6.693000 10.748000 60.441002 # H3 RES
181 181 6 0.000000 13.947000 6.263000 65.318001 # H3 RES
182 182 6 0.000000 11.571000 2.242000 65.318001 # H3 RES
183 183 6 0.000000 11.571000 6.263000 70.198997 # H3 RES
184 184 6 0.000000 13.947000 2.242000 70.198997 # H3 RES
185 185 6 0.000000 10.318000 13.947000 61.263000 # H3 RES
186 186 6 0.000000 10.318000 11.571000 57.242001 # H3 RES
187 187 6 0.000000 15.199000 11.571000 61.263000 # H3 RES
188 188 6 0.000000 15.199000 13.947000 57.242001 # H3 RES
189 189 6 0.000000 6.263000 10.318000 68.946999 # H3 RES
190 190 6 0.000000 2.242000 10.318000 66.570999 # H3 RES
191 191 6 0.000000 6.263000 15.199000 66.570999 # H3 RES
192 192 6 0.000000 2.242000 15.199000 68.946999 # H3 RES
193 193 6 0.000000 6.263000 13.947000 65.318001 # H3 RES
194 194 6 0.000000 2.242000 11.571000 65.318001 # H3 RES
195 195 6 0.000000 6.263000 11.571000 70.198997 # H3 RES
196 196 6 0.000000 2.242000 13.947000 70.198997 # H3 RES
197 197 6 0.000000 13.947000 10.318000 61.263000 # H3 RES
198 198 6 0.000000 11.571000 10.318000 57.242001 # H3 RES
199 199 6 0.000000 11.571000 15.199000 61.263000 # H3 RES
200 200 6 0.000000 13.947000 15.199000 57.242001 # H3 RES
201 201 6 0.000000 10.318000 6.263000 68.946999 # H3 RES
202 202 6 0.000000 10.318000 2.242000 66.570999 # H3 RES
203 203 6 0.000000 15.199000 6.263000 66.570999 # H3 RES
204 204 6 0.000000 15.199000 2.242000 68.946999 # H3 RES
205 205 6 0.000000 5.103000 14.095000 58.403000 # H3 RES
206 206 6 0.000000 3.403000 11.423000 58.403000 # H3 RES
207 207 6 0.000000 3.403000 14.095000 60.103001 # H3 RES
208 208 6 0.000000 5.103000 11.423000 60.103001 # H3 RES
209 209 6 0.000000 3.403000 5.103000 69.095001 # H3 RES
210 210 6 0.000000 3.403000 3.403000 66.422997 # H3 RES
211 211 6 0.000000 5.103000 3.403000 69.095001 # H3 RES
212 212 6 0.000000 5.103000 5.103000 66.422997 # H3 RES
213 213 6 0.000000 14.095000 3.403000 60.103001 # H3 RES
214 214 6 0.000000 11.423000 3.403000 58.403000 # H3 RES
215 215 6 0.000000 14.095000 5.103000 58.403000 # H3 RES
216 216 6 0.000000 11.423000 5.103000 60.103001 # H3 RES
217 217 6 0.000000 13.609000 5.589000 66.908997 # H3 RES
218 218 6 0.000000 11.909000 2.917000 66.908997 # H3 RES
219 219 6 0.000000 11.909000 5.589000 68.609001 # H3 RES
220 220 6 0.000000 13.609000 2.917000 68.609001 # H3 RES
221 221 6 0.000000 11.909000 13.609000 60.589001 # H3 RES
222 222 6 0.000000 11.909000 11.909000 57.917000 # H3 RES
223 223 6 0.000000 13.609000 11.909000 60.589001 # H3 RES
224 224 6 0.000000 13.609000 13.609000 57.917000 # H3 RES
225 225 6 0.000000 5.589000 11.909000 68.609001 # H3 RES
226 226 6 0.000000 2.917000 11.909000 66.908997 # H3 RES
227 227 6 0.000000 5.589000 13.609000 66.908997 # H3 RES
228 228 6 0.000000 2.917000 13.609000 68.609001 # H3 RES
229 229 9 0.000000 2.730000 12.166000 62.348000 # N RES
230 230 9 0.000000 5.776000 13.352000 62.348000 # N RES
231 231 9 0.000000 5.776000 12.166000 56.158001 # N RES
232 232 9 0.000000 2.730000 13.352000 56.158001 # N RES
233 233 9 0.000000 7.348000 2.730000 67.166000 # N RES
234 234 9 0.000000 7.348000 5.776000 68.351997 # N RES
235 235 9 0.000000 1.158000 5.776000 67.166000 # N RES
236 236 9 0.000000 1.158000 2.730000 68.351997 # N RES
237 237 9 0.000000 12.166000 7.348000 57.730000 # N RES
238 238 9 0.000000 13.352000 7.348000 60.776001 # N RES
239 239 9 0.000000 12.166000 1.158000 60.776001 # N RES
240 240 9 0.000000 13.352000 1.158000 57.730000 # N RES
241 241 9 0.000000 12.166000 2.730000 62.348000 # N RES
242 242 9 0.000000 13.352000 5.776000 62.348000 # N RES
243 243 9 0.000000 12.166000 5.776000 56.158001 # N RES
244 244 9 0.000000 13.352000 2.730000 56.158001 # N RES
245 245 9 0.000000 2.730000 7.348000 67.166000 # N RES
246 246 9 0.000000 5.776000 7.348000 68.351997 # N RES
247 247 9 0.000000 5.776000 1.158000 67.166000 # N RES
248 248 9 0.000000 2.730000 1.158000 68.351997 # N RES
249 249 9 0.000000 7.348000 12.166000 57.730000 # N RES
250 250 9 0.000000 7.348000 13.352000 60.776001 # N RES
251 251 9 0.000000 1.158000 12.166000 60.776001 # N RES
252 252 9 0.000000 1.158000 13.352000 57.730000 # N RES
253 253 9 0.000000 11.236000 3.660000 70.852997 # N RES
254 254 9 0.000000 14.282000 4.846000 70.852997 # N RES
255 255 9 0.000000 14.282000 3.660000 64.664001 # N RES
256 256 9 0.000000 11.236000 4.846000 64.664001 # N RES
257 257 9 0.000000 15.853000 11.236000 58.660000 # N RES
258 258 9 0.000000 15.853000 14.282000 59.846001 # N RES
259 259 9 0.000000 9.664000 14.282000 58.660000 # N RES
260 260 9 0.000000 9.664000 11.236000 59.846001 # N RES
261 261 9 0.000000 3.660000 15.853000 66.236000 # N RES
262 262 9 0.000000 4.846000 15.853000 69.281998 # N RES
263 263 9 0.000000 3.660000 9.664000 69.281998 # N RES
264 264 9 0.000000 4.846000 9.664000 66.236000 # N RES
265 265 9 0.000000 3.660000 11.236000 70.852997 # N RES
266 266 9 0.000000 4.846000 14.282000 70.852997 # N RES
267 267 9 0.000000 3.660000 14.282000 64.664001 # N RES
268 268 9 0.000000 4.846000 11.236000 64.664001 # N RES
269 269 9 0.000000 11.236000 15.853000 58.660000 # N RES
270 270 9 0.000000 14.282000 15.853000 59.846001 # N RES
271 271 9 0.000000 14.282000 9.664000 58.660000 # N RES
272 272 9 0.000000 11.236000 9.664000 59.846001 # N RES
273 273 9 0.000000 15.853000 3.660000 66.236000 # N RES
274 274 9 0.000000 15.853000 4.846000 69.281998 # N RES
275 275 9 0.000000 9.664000 3.660000 69.281998 # N RES
276 276 9 0.000000 9.664000 4.846000 66.236000 # N RES
277 277 11 0.000000 4.253000 12.759000 80.517998 # Zn RES
278 278 11 0.000000 4.253000 12.759000 72.012001 # Zn RES
279 279 11 0.000000 8.506000 4.253000 84.771004 # Zn RES
280 280 11 0.000000 0.000000 4.253000 84.771004 # Zn RES
281 281 11 0.000000 12.759000 8.506000 76.264999 # Zn RES
282 282 11 0.000000 12.759000 17.011999 76.264999 # Zn RES
283 283 11 0.000000 12.759000 4.253000 80.517998 # Zn RES
284 284 11 0.000000 12.759000 4.253000 72.012001 # Zn RES
285 285 11 0.000000 4.253000 8.506000 84.771004 # Zn RES
286 286 11 0.000000 4.253000 0.000000 84.771004 # Zn RES
287 287 11 0.000000 8.506000 12.759000 76.264999 # Zn RES
288 288 11 0.000000 17.011999 12.759000 76.264999 # Zn RES
289 289 1 0.000000 2.163000 12.861000 78.355003 # C1 RES
290 290 1 0.000000 6.343000 12.657000 78.355003 # C1 RES
291 291 1 0.000000 6.343000 12.861000 74.175003 # C1 RES
292 292 1 0.000000 2.163000 12.657000 74.175003 # C1 RES
293 293 1 0.000000 6.343000 2.163000 84.873001 # C1 RES
294 294 1 0.000000 6.343000 6.343000 84.668999 # C1 RES
295 295 1 0.000000 2.163000 6.343000 84.873001 # C1 RES
296 296 1 0.000000 2.163000 2.163000 84.668999 # C1 RES
297 297 1 0.000000 12.861000 6.343000 74.175003 # C1 RES
298 298 1 0.000000 12.657000 6.343000 78.355003 # C1 RES
299 299 1 0.000000 12.861000 2.163000 78.355003 # C1 RES
300 300 1 0.000000 12.657000 2.163000 74.175003 # C1 RES
301 301 1 0.000000 10.668000 4.355000 86.861000 # C1 RES
302 302 1 0.000000 14.849000 4.151000 86.861000 # C1 RES
303 303 1 0.000000 14.849000 4.355000 82.680000 # C1 RES
304 304 1 0.000000 10.668000 4.151000 82.680000 # C1 RES
305 305 1 0.000000 14.849000 10.668000 76.366997 # C1 RES
306 306 1 0.000000 14.849000 14.849000 76.163002 # C1 RES
307 307 1 0.000000 10.668000 14.849000 76.366997 # C1 RES
308 308 1 0.000000 10.668000 10.668000 76.163002 # C1 RES
309 309 1 0.000000 4.355000 14.849000 82.680000 # C1 RES
310 310 1 0.000000 4.151000 14.849000 86.861000 # C1 RES
311 311 1 0.000000 4.355000 10.668000 86.861000 # C1 RES
312 312 1 0.000000 4.151000 10.668000 82.680000 # C1 RES
313 313 2 0.000000 2.061000 10.966000 79.424004 # C2 RES
314 314 2 0.000000 6.445000 14.552000 79.424004 # C2 RES
315 315 2 0.000000 6.445000 10.966000 73.106003 # C2 RES
316 316 2 0.000000 2.061000 14.552000 73.106003 # C2 RES
317 317 2 0.000000 7.412000 2.061000 82.977997 # C2 RES
318 318 2 0.000000 7.412000 6.445000 86.564003 # C2 RES
319 319 2 0.000000 1.094000 6.445000 82.977997 # C2 RES
320 320 2 0.000000 1.094000 2.061000 86.564003 # C2 RES
321 321 2 0.000000 10.966000 7.412000 74.072998 # C2 RES
322 322 2 0.000000 14.552000 7.412000 78.457001 # C2 RES
323 323 2 0.000000 10.966000 1.094000 78.457001 # C2 RES
324 324 2 0.000000 14.552000 1.094000 74.072998 # C2 RES
325 325 2 0.000000 10.966000 2.061000 79.424004 # C2 RES
326 326 2 0.000000 14.552000 6.445000 79.424004 # C2 RES
327 327 2 0.000000 10.966000 6.445000 73.106003 # C2 RES
328 328 2 0.000000 14.552000 2.061000 73.106003 # C2 RES
329 329 2 0.000000 2.061000 7.412000 82.977997 # C2 RES
330 330 2 0.000000 6.445000 7.412000 86.564003 # C2 RES
331 331 2 0.000000 6.445000 1.094000 82.977997 # C2 RES
332 332 2 0.000000 2.061000 1.094000 86.564003 # C2 RES
333 333 2 0.000000 7.412000 10.966000 74.072998 # C2 RES
334 334 2 0.000000 7.412000 14.552000 78.457001 # C2 RES
335 335 2 0.000000 1.094000 10.966000 78.457001 # C2 RES
336 336 2 0.000000 1.094000 14.552000 74.072998 # C2 RES
337 337 2 0.000000 10.567000 2.460000 87.930000 # C2 RES
338 338 2 0.000000 14.951000 6.046000 87.930000 # C2 RES
339 339 2 0.000000 14.951000 2.460000 81.611000 # C2 RES
340 340 2 0.000000 10.567000 6.046000 81.611000 # C2 RES
341 341 2 0.000000 15.918000 10.567000 74.472000 # C2 RES
342 342 2 0.000000 15.918000 14.951000 78.057999 # C2 RES
343 343 2 0.000000 9.599000 14.951000 74.472000 # C2 RES
344 344 2 0.000000 9.599000 10.567000 78.057999 # C2 RES
345 345 2 0.000000 2.460000 15.918000 82.579002 # C2 RES
346 346 2 0.000000 6.046000 15.918000 86.962997 # C2 RES
347 347 2 0.000000 2.460000 9.599000 86.962997 # C2 RES
348 348 2 0.000000 6.046000 9.599000 82.579002 # C2 RES
349 349 2 0.000000 2.460000 10.567000 87.930000 # C2 RES
350 350 2 0.000000 6.046000 14.951000 87.930000 # C2 RES
351 351 2 0.000000 2.460000 14.951000 81.611000 # C2 RES
352 352 2 0.000000 6.046000 10.567000 81.611000 # C2 RES
353 353 2 0.000000 10.567000 15.918000 74.472000 # C2 RES
354 354 2 0.000000 14.951000 15.918000 78.057999 # C2 RES
355 355 2 0.000000 14.951000 9.599000 74.472000 # C2 RES
356 356 2 0.000000 10.567000 9.599000 78.057999 # C2 RES
357 357 2 0.000000 15.918000 2.460000 82.579002 # C2 RES
358 358 2 0.000000 15.918000 6.046000 86.962997 # C2 RES
359 359 2 0.000000 9.599000 2.460000 86.962997 # C2 RES
360 360 2 0.000000 9.599000 6.046000 82.579002 # C2 RES
361 361 5 0.000000 2.322000 10.207000 80.146004 # H2 RES
362 362 5 0.000000 6.184000 15.310000 80.146004 # H2 RES
363 363 5 0.000000 6.184000 10.207000 72.383003 # H2 RES
364 364 5 0.000000 2.322000 15.310000 72.383003 # H2 RES
365 365 5 0.000000 8.134000 2.322000 82.219002 # H2 RES
366 366 5 0.000000 8.134000 6.184000 87.321999 # H2 RES
367 367 5 0.000000 0.371000 6.184000 82.219002 # H2 RES
368 368 5 0.000000 0.371000 2.322000 87.321999 # H2 RES
369 369 5 0.000000 10.207000 8.134000 74.334000 # H2 RES
370 370 5 0.000000 15.310000 8.134000 78.195999 # H2 RES
371 371 5 0.000000 10.207000 0.371000 78.195999 # H2 RES
372 372 5 0.000000 15.310000 0.371000 74.334000 # H2 RES
373 373 5 0.000000 10.207000 2.322000 80.146004 # H2 RES
374 374 5 0.000000 15.310000 6.184000 80.146004 # H2 RES
375 375 5 0.000000 10.207000 6.184000 72.383003 # H2 RES
376 376 5 0.000000 15.310000 2.322000 72.383003 # H2 RES
377 377 5 0.000000 2.322000 8.134000 82.219002 # H2 RES
378 378 5 0.000000 6.184000 8.134000 87.321999 # H2 RES
379 379 5 0.000000 6.184000 0.371000 82.219002 # H2 RES
380 380 5 0.000000 2.322000 0.371000 87.321999 # H2 RES
381 381 5 0.000000 8.134000 10.207000 74.334000 # H2 RES
382 382 5 0.000000 8.134000 15.310000 78.195999 # H2 RES
383 383 5 0.000000 0.371000 10.207000 78.195999 # H2 RES
384 384 5 0.000000 0.371000 15.310000 74.334000 # H2 RES
385 385 5 0.000000 10.828000 1.701000 88.652000 # H2 RES
386 386 5 0.000000 14.689000 6.805000 88.652000 # H2 RES
387 387 5 0.000000 14.689000 1.701000 80.889000 # H2 RES
388 388 5 0.000000 10.828000 6.805000 80.889000 # H2 RES
389 389 5 0.000000 16.639999 10.828000 73.712997 # H2 RES
390 390 5 0.000000 16.639999 14.689000 78.817001 # H2 RES
391 391 5 0.000000 8.877000 14.689000 73.712997 # H2 RES
392 392 5 0.000000 8.877000 10.828000 78.817001 # H2 RES
393 393 5 0.000000 1.701000 16.639999 82.839996 # H2 RES
394 394 5 0.000000 6.805000 16.639999 86.700996 # H2 RES
395 395 5 0.000000 1.701000 8.877000 86.700996 # H2 RES
396 396 5 0.000000 6.805000 8.877000 82.839996 # H2 RES
397 397 5 0.000000 1.701000 10.828000 88.652000 # H2 RES
398 398 5 0.000000 6.805000 14.689000 88.652000 # H2 RES
399 399 5 0.000000 1.701000 14.689000 80.889000 # H2 RES
400 400 5 0.000000 6.805000 10.828000 80.889000 # H2 RES
401 401 5 0.000000 10.828000 16.639999 73.712997 # H2 RES
402 402 5 0.000000 14.689000 16.639999 78.817001 # H2 RES
403 403 5 0.000000 14.689000 8.877000 73.712997 # H2 RES
404 404 5 0.000000 10.828000 8.877000 78.817001 # H2 RES
405 405 5 0.000000 16.639999 1.701000 82.839996 # H2 RES
406 406 5 0.000000 16.639999 6.805000 86.700996 # H2 RES
407 407 5 0.000000 8.877000 1.701000 86.700996 # H2 RES
408 408 5 0.000000 8.877000 6.805000 82.839996 # H2 RES
409 409 3 0.000000 2.631000 14.193000 77.887001 # C3 RES
410 410 3 0.000000 5.875000 11.325000 77.887001 # C3 RES
411 411 3 0.000000 5.875000 14.193000 74.642998 # C3 RES
412 412 3 0.000000 2.631000 11.325000 74.642998 # C3 RES
413 413 3 0.000000 5.875000 2.631000 86.205002 # C3 RES
414 414 3 0.000000 5.875000 5.875000 83.336998 # C3 RES
415 415 3 0.000000 2.631000 5.875000 86.205002 # C3 RES
416 416 3 0.000000 2.631000 2.631000 83.336998 # C3 RES
417 417 3 0.000000 14.193000 5.875000 74.642998 # C3 RES
418 418 3 0.000000 11.325000 5.875000 77.887001 # C3 RES
419 419 3 0.000000 14.193000 2.631000 77.887001 # C3 RES
420 420 3 0.000000 11.325000 2.631000 74.642998 # C3 RES
421 421 3 0.000000 11.137000 5.687000 86.392998 # C3 RES
422 422 3 0.000000 14.381000 2.819000 86.392998 # C3 RES
423 423 3 0.000000 14.381000 5.687000 83.149002 # C3 RES
424 424 3 0.000000 11.137000 2.819000 83.149002 # C3 RES
425 425 3 0.000000 14.381000 11.137000 77.698997 # C3 RES
426 426 3 0.000000 14.381000 14.381000 74.831001 # C3 RES
427 427 3 0.000000 11.137000 14.381000 77.698997 # C3 RES
428 428 3 0.000000 11.137000 11.137000 74.831001 # C3 RES
429 429 3 0.000000 5.687000 14.381000 83.149002 # C3 RES
430 430 3 0.000000 2.819000 14.381000 86.392998 # C3 RES
431 431 3 0.000000 5.687000 11.137000 86.392998 # C3 RES
432 432 3 0.000000 2.819000 11.137000 83.149002 # C3 RES
433 433 6 0.000000 5.441000 14.769000 73.823997 # H3 RES
434 434 6 0.000000 3.065000 10.748000 73.823997 # H3 RES
435 435 6 0.000000 3.065000 14.769000 78.705002 # H3 RES
436 436 6 0.000000 5.441000 10.748000 78.705002 # H3 RES
437 437 6 0.000000 1.812000 5.441000 86.780998 # H3 RES
438 438 6 0.000000 1.812000 3.065000 82.760002 # H3 RES
439 439 6 0.000000 6.693000 3.065000 86.780998 # H3 RES
440 440 6 0.000000 6.693000 5.441000 82.760002 # H3 RES
441 441 6 0.000000 14.769000 1.812000 77.453003 # H3 RES
442 442 6 0.000000 10.748000 1.812000 75.077003 # H3 RES
443 443 6 0.000000 14.769000 6.693000 75.077003 # H3 RES
444 444 6 0.000000 10.748000 6.693000 77.453003 # H3 RES
445 445 6 0.000000 14.769000 5.441000 73.823997 # H3 RES
446 446 6 0.000000 10.748000 3.065000 73.823997 # H3 RES
447 447 6 0.000000 14.769000 3.065000 78.705002 # H3 RES
448 448 6 0.000000 10.748000 5.441000 78.705002 # H3 RES
449 449 6 0.000000 5.441000 1.812000 86.780998 # H3 RES
450 450 6 0.000000 3.065000 1.812000 82.760002 # H3 RES
451 451 6 0.000000 3.065000 6.693000 86.780998 # H3 RES
452 452 6 0.000000 5.441000 6.693000 82.760002 # H3 RES
453 453 6 0.000000 1.812000 14.769000 77.453003 # H3 RES
454 454 6 0.000000 1.812000 10.748000 75.077003 # H3 RES
455 455 6 0.000000 6.693000 14.769000 75.077003 # H3 RES
456 456 6 0.000000 6.693000 10.748000 77.453003 # H3 RES
457 457 6 0.000000 13.947000 6.263000 82.330002 # H3 RES
458 458 6 0.000000 11.571000 2.242000 82.330002 # H3 RES
459 459 6 0.000000 11.571000 6.263000 87.210999 # H3 RES
460 460 6 0.000000 13.947000 2.242000 87.210999 # H3 RES
461 461 6 0.000000 10.318000 13.947000 78.275002 # H3 RES
462 462 6 0.000000 10.318000 11.571000 74.253998 # H3 RES
463 463 6 0.000000 15.199000 11.571000 78.275002 # H3 RES
464 464 6 0.000000 15.199000 13.947000 74.253998 # H3 RES
465 465 6 0.000000 6.263000 10.318000 85.959000 # H3 RES
466 466 6 0.000000 2.242000 10.318000 83.583000 # H3 RES
467 467 6 0.000000 6.263000 15.199000 83.583000 # H3 RES
468 468 6 0.000000 2.242000 15.199000 85.959000 # H3 RES
469 469 6 0.000000 6.263000 13.947000 82.330002 # H3 RES
470 470 6 0.000000 2.242000 11.571000 82.330002 # H3 RES
471 471 6 0.000000 6.263000 11.571000 87.210999 # H3 RES
472 472 6 0.000000 2.242000 13.947000 87.210999 # H3 RES
473 473 6 0.000000 13.947000 10.318000 78.275002 # H3 RES
474 474 6 0.000000 11.571000 10.318000 74.253998 # H3 RES
475 475 6 0.000000 11.571000 15.199000 78.275002 # H3 RES
476 476 6 0.000000 13.947000 15.199000 74.253998 # H3 RES
477 477 6 0.000000 10.318000 6.263000 85.959000 # H3 RES
478 478 6 0.000000 10.318000 2.242000 83.583000 # H3 RES
479 479 6 0.000000 15.199000 6.263000 83.583000 # H3 RES
480 480 6 0.000000 15.199000 2.242000 85.959000 # H3 RES
481 481 6 0.000000 5.103000 14.095000 75.415001 # H3 RES
482 482 6 0.000000 3.403000 11.423000 75.415001 # H3 RES
483 483 6 0.000000 3.403000 14.095000 77.114998 # H3 RES
484 484 6 0.000000 5.103000 11.423000 77.114998 # H3 RES
485 485 6 0.000000 3.403000 5.103000 86.107002 # H3 RES
486 486 6 0.000000 3.403000 3.403000 83.434998 # H3 RES
487 487 6 0.000000 5.103000 3.403000 86.107002 # H3 RES
488 488 6 0.000000 5.103000 5.103000 83.434998 # H3 RES
489 489 6 0.000000 14.095000 3.403000 77.114998 # H3 RES
490 490 6 0.000000 11.423000 3.403000 75.415001 # H3 RES
491 491 6 0.000000 14.095000 5.103000 75.415001 # H3 RES
492 492 6 0.000000 11.423000 5.103000 77.114998 # H3 RES
493 493 6 0.000000 13.609000 5.589000 83.920998 # H3 RES
494 494 6 0.000000 11.909000 2.917000 83.920998 # H3 RES
495 495 6 0.000000 11.909000 5.589000 85.621002 # H3 RES
496 496 6 0.000000 13.609000 2.917000 85.621002 # H3 RES
497 497 6 0.000000 11.909000 13.609000 77.600998 # H3 RES
498 498 6 0.000000 11.909000 11.909000 74.929001 # H3 RES
499 499 6 0.000000 13.609000 11.909000 77.600998 # H3 RES
500 500 6 0.000000 13.609000 13.609000 74.929001 # H3 RES
501 501 6 0.000000 5.589000 11.909000 85.621002 # H3 RES
502 502 6 0.000000 2.917000 11.909000 83.920998 # H3 RES
503 503 6 0.000000 5.589000 13.609000 83.920998 # H3 RES
504 504 6 0.000000 2.917000 13.609000 85.621002 # H3 RES
505 505 9 0.000000 2.730000 12.166000 79.360001 # N RES
506 506 9 0.000000 5.776000 13.352000 79.360001 # N RES
507 507 9 0.000000 5.776000 12.166000 73.169998 # N RES
508 508 9 0.000000 2.730000 13.352000 73.169998 # N RES
509 509 9 0.000000 7.348000 2.730000 84.178001 # N RES