LAMMPS data file
 0 atoms
 0 atom types
 0 34  xlo xhi
 0 34  ylo yhi
 0 34  zlo zhi
 5 -8 3 xy xz yz
