



1 atoms
1 atom types

0.00 10.0000000000    xlo xhi
0.00 10.0000000000   ylo     yhi
0.00 10.0000000000 zlo zhi     
         
Atoms  #   full      

1 1 1 0.0 5.0 5.0 5.0





